ITEM: TIMESTEP
4
ITEM: NUMBER OF ATOMS
251
ITEM: BOX BOUNDS pp pp pp
0.0000000000000000e+00 1.5721105000000000e+01
0.0000000000000000e+00 1.5721105000000000e+01
0.0000000000000000e+00 1.5721105000000000e+01
ITEM: ATOMS id type xs ys zs
1 1 1.00001 1.00001 1.66725e-06
2 1 0.0999986 0.0999994 0.1
3 1 0.199968 1.48999e-05 1.43871e-05
4 1 0.299971 0.100029 0.100029
5 1 0.399584 0.000415947 0.000426899
6 1 0.500007 0.100006 0.100004
7 1 0.600086 0.000211186 0.000105729
8 1 0.699999 0.100019 0.100019
9 1 0.800129 0.000374868 0.000125274
10 1 0.900016 0.100034 0.100017
11 1 -5.66198e-07 0.2 5.95546e-08
12 1 0.0999986 0.300001 0.1
13 1 0.200004 0.2 -2.01795e-06
14 1 0.299971 0.299971 0.10003
15 1 0.399966 0.2 3.33633e-05
16 1 0.500007 0.299994 0.100004
17 1 0.600012 0.2 1.00002
18 1 0.699999 0.299981 0.100019
19 1 0.80002 0.2 2.14136e-05
20 1 0.900016 0.299966 0.100017
21 1 1.00001 0.39999 2.38125e-06
22 1 0.100031 0.499986 0.100014
23 1 0.199968 0.399985 1.44835e-05
24 1 0.299989 0.499998 0.10001
25 1 0.399562 0.399561 0.000449297
26 1 0.499871 0.499874 0.100379
27 1 0.600093 0.399785 0.00010949
28 1 0.699908 0.499893 0.100214
29 1 0.800131 0.399624 0.000127609
30 1 0.900432 0.499558 0.100432
31 1 0.000345091 0.599923 8.29736e-05
32 1 0.100023 0.7 0.100013
33 1 0.199992 0.599996 1.93925e-05
34 1 0.299973 0.7 0.100034
35 1 0.399838 0.600173 8.05281e-05
36 1 0.500025 0.699999 0.0999824
37 1 0.599357 0.599118 0.000303187
38 1 0.700171 0.7 0.100186
39 1 0.80203 0.598189 0.00184676
40 1 0.900235 0.7 0.100247
41 1 0.00034529 0.800077 8.26618e-05
42 1 0.100031 0.900014 0.100015
43 1 0.199992 0.800004 1.94219e-05
44 1 0.299989 0.900002 0.100011
45 1 0.399848 0.799834 7.07438e-05
46 1 0.49987 0.900127 0.100365
47 1 0.599359 0.800874 0.000304179
48 1 0.699908 0.900108 0.100213
49 1 0.802026 0.801811 0.0018431
50 1 0.900433 0.900443 0.100433
51 1 2.83185e-05 2.85096e-05 0.200028
52 1 0.100001 0.100001 0.3
53 1 0.200001 4.22806e-07 0.199999
54 1 0.299999 0.100001 0.3
55 1 0.399984 1.65928e-05 0.200034
56 1 0.500001 0.0999977 0.3
57 1 0.600001 1.00002 0.200019
58 1 0.700001 0.099997 0.3
59 1 0.799994 1 0.200006
60 1 0.899998 0.0999961 0.3
61 1 6.77849e-07 0.2 0.200001
62 1 0.100001 0.299999 0.3
63 1 0.199999 0.2 0.200001
64 1 0.299999 0.299999 0.3
65 1 0.400002 0.2 0.199996
66 1 0.500001 0.300002 0.3
67 1 0.599999 0.2 0.199997
68 1 0.700001 0.300003 0.3
69 1 0.799999 0.2 0.199998
70 1 0.899998 0.300004 0.3
71 1 2.82559e-05 0.399972 0.200028
72 1 0.0999965 0.500002 0.3
73 1 0.200001 0.4 0.199999
74 1 0.300001 0.5 0.3
75 1 0.399984 0.399983 0.200035
76 1 0.49998 0.499979 0.3
77 1 0.600001 0.399981 0.200019
78 1 0.699988 0.49998 0.3
79 1 0.799994 0.399996 0.200006
80 1 0.900033 0.499967 0.299999
81 1 1.00001 0.599999 0.20001
82 1 0.0999961 0.7 0.3
83 1 0.200001 0.6 0.199998
84 1 0.3 0.7 0.3
85 1 0.399987 0.600009 0.200016
86 1 0.499991 0.7 0.3
87 1 0.599956 0.599961 0.200089
88 1 0.699981 0.7 0.299999
89 1 0.800066 0.599934 0.200288
90 1 0.900029 0.7 0.3
91 1 1.00001 0.800001 0.20001
92 1 0.0999964 0.899998 0.3
93 1 0.200001 0.8 0.199998
94 1 0.300001 0.9 0.3
95 1 0.399987 0.799991 0.200016
96 1 0.49998 0.900021 0.3
97 1 0.599956 0.800039 0.200089
98 1 0.699988 0.90002 0.3
99 1 0.800066 0.800066 0.200289
100 1 0.900033 0.900033 0.299999
101 1 2.93112e-05 2.95015e-05 0.399971
102 1 0.0999986 0.0999994 0.5
103 1 0.200001 4.32262e-07 0.400001
104 1 0.299971 0.100029 0.499971
105 1 0.399984 1.6741e-05 0.399965
106 1 0.500007 0.100006 0.499996
107 1 0.600001 1.00002 0.399981
108 1 0.699999 0.100019 0.499981
109 1 0.799993 1 0.399994
110 1 0.900016 0.100035 0.499983
111 1 6.9649e-07 0.2 0.399999
112 1 0.0999986 0.300001 0.5
113 1 0.199999 0.2 0.399999
114 1 0.299971 0.299971 0.49997
115 1 0.400002 0.2 0.400004
116 1 0.500007 0.299994 0.499996
117 1 0.599999 0.2 0.400003
118 1 0.699999 0.299981 0.499981
119 1 0.799999 0.2 0.400002
120 1 0.900016 0.299965 0.499983
121 1 2.92463e-05 0.399971 0.399971
122 1 0.100032 0.499986 0.499985
123 1 0.200001 0.4 0.400001
124 1 0.299989 0.499998 0.49999
125 1 0.399984 0.399983 0.399965
126 1 0.499872 0.499875 0.499623
127 1 0.600001 0.399981 0.399981
128 1 0.699913 0.499895 0.499788
129 1 0.799993 0.399996 0.399994
130 1 0.900418 0.499571 0.499582
131 1 1.00001 0.599999 0.399989
132 1 0.100024 0.7 0.499987
133 1 0.2 0.6 0.400002
134 1 0.299973 0.7 0.499966
135 1 0.399987 0.600009 0.399984
136 1 0.500025 0.699999 0.500016
137 1 0.599956 0.599961 0.399911
138 1 0.700166 0.7 0.499803
139 1 0.800066 0.599933 0.399717
140 1 0.900234 0.7 0.499754
141 1 1.00001 0.800001 0.399989
142 1 0.100032 0.900014 0.499985
143 1 0.2 0.8 0.400002
144 1 0.299989 0.900002 0.499989
145 1 0.399987 0.799991 0.399984
146 1 0.499871 0.900125 0.499637
147 1 0.599956 0.80004 0.39991
148 1 0.699913 0.900106 0.499789
149 1 0.800066 0.800067 0.399717
150 1 0.900419 0.90043 0.499581
151 1 1.00001 1.00001 0.599998
152 1 0.0999996 0.0999979 0.7
153 1 0.199968 1.48592e-05 0.599986
154 1 0.299989 0.100011 0.699999
155 1 0.399584 0.00041645 0.599573
156 1 0.499934 0.100281 0.699933
157 1 0.600085 0.00021062 0.599894
158 1 0.700044 0.10009 0.699961
159 1 0.80013 0.000365013 0.599874
160 1 0.900013 0.100016 0.700009
161 1 -5.95882e-07 0.2 0.6
162 1 0.0999995 0.300002 0.7
163 1 0.200004 0.2 0.600002
164 1 0.299989 0.299989 0.699999
165 1 0.399966 0.2 0.599967
166 1 0.499934 0.299708 0.699934
167 1 0.600012 0.2 0.59998
168 1 0.700043 0.299911 0.699961
169 1 0.80002 0.2 0.599979
170 1 0.900013 0.299984 0.700009
171 1 1.00001 0.399989 0.599998
172 1 0.100007 0.499981 0.699996
173 1 0.199968 0.399985 0.599986
174 1 0.29965 0.499917 0.699922
175 1 0.399561 0.399561 0.59955
176 1 0.49795 0.498138 0.698166
177 1 0.600093 0.399785 0.59989
178 1 0.700649 0.499691 0.699117
179 1 0.800132 0.399633 0.599872
180 1 0.900155 0.499927 0.700165
181 1 0.000337589 0.599923 0.599917
182 1 0.1001 0.7 0.700001
183 1 0.199993 0.599996 0.599981
184 1 0.299955 0.700001 0.699918
185 1 0.399836 0.600168 0.599915
186 1 0.500772 0.700003 0.700374
187 1 0.599335 0.599107 0.599698
188 1 0.705368 0.700026 0.686267
189 1 0.802111 0.598098 0.598086
190 1 0.900682 0.699998 0.699754
191 1 0.00033789 0.800078 0.599917
192 1 0.100007 0.900019 0.699997
193 1 0.199993 0.800004 0.59998
194 1 0.299664 0.900083 0.699923
195 1 0.399846 0.799839 0.599925
196 1 0.4979 0.901903 0.698105
197 1 0.599337 0.800886 0.599696
198 1 0.700665 0.900307 0.699111
199 1 0.802106 0.801902 0.59809
200 1 0.900156 0.900076 0.700161
201 1 1.00003 1.00003 0.8
202 1 0.0999996 0.0999979 0.9
203 1 0.199977 1.00001 0.8
204 1 0.299989 0.100011 0.900001
205 1 0.399767 0.000244786 0.8
206 1 0.499934 0.100281 0.900067
207 1 0.599835 0.000199092 0.8
208 1 0.700045 0.10009 0.90004
209 1 0.799975 -1.42725e-05 0.8
210 1 0.900013 0.100016 0.899991
211 1 -2.34844e-07 0.2 0.8
212 1 0.0999995 0.300002 0.9
213 1 0.200004 0.2 0.8
214 1 0.299989 0.299989 0.900001
215 1 0.39997 0.2 0.8
216 1 0.499935 0.299709 0.900066
217 1 0.600019 0.200002 0.8
218 1 0.700043 0.299911 0.900039
219 1 0.800009 0.2 0.8
220 1 0.900013 0.299984 0.899991
221 1 1.00003 0.399966 0.8
222 1 0.100007 0.499981 0.900004
223 1 0.199976 0.399987 0.8
224 1 0.29965 0.499916 0.900078
225 1 0.399761 0.399749 0.8
226 1 0.497945 0.498132 0.901837
227 1 0.599826 0.399826 0.8
228 1 0.700651 0.499688 0.900888
229 1 0.799975 0.400015 0.8
230 1 0.900161 0.499921 0.89983
231 1 4.0133e-05 0.599918 0.8
232 1 0.1001 0.7 0.899999
233 1 0.199899 0.600001 0.8
234 1 0.29996 0.700001 0.900081
235 1 0.399351 0.599739 0.800002
236 1 0.500746 0.700003 0.899624
237 1 0.594318 0.585643 0.799985
238 1 0.705654 0.700021 0.914236
239 1 0.79926 0.600363 0.799985
240 1 0.900643 0.699998 0.900255
241 1 4.51099e-05 0.800082 0.8
242 1 0.100006 0.900019 0.900004
243 1 0.1999 0.799999 0.8
244 1 0.299664 0.900083 0.900077
245 1 0.39932 0.800245 0.800002
246 1 0.497895 0.901908 0.901899
247 1 0.59466 0.813738 0.79998
248 1 0.700667 0.900311 0.900893
249 1 0.799233 0.799632 0.799985
250 1 0.900161 0.900082 0.899833
251 3 0.649888 0.700421 0.799533
