LAMMPS data file via write_data, version 2 Aug 2023, timestep = 1522, units = metal

14400 atoms
3 atom types

0.08884381192099244 65.26256245477923 xlo xhi
0.11770274991485179 61.49619395843285 ylo yhi
-22.325546317229453 75.68474609280892 zlo zhi

Masses

1 183.84
2 1.008
3 4.0026

Atoms # atomic

1 1 0.9940343486273325 58.93875682474439 0.005377260670399659 0 0 0
2 1 0.9940343486273515 51.266445423679706 0.00537726067039966 0 0 0
3 1 0.9940343486273212 55.10260112421193 2.1642557285870225 0 0 0
5381 1 21.813416692873677 3.953858450447138 2.1642557285871398 0 0 0
5 1 2.804415422040126 53.82388255736802 0.005377260670445902 0 0 0
6 1 0.9940343486273565 58.93875682474439 4.390827611310044 0 0 0
7 1 0.08884381192102435 57.66003825790044 2.1642557285871615 0 0 0
8 1 2.8044154220401163 57.66003825790048 2.164255728587197 0 0 0
9 1 1.899224885333709 56.38131969105628 0.0053772606703778964 0 0 0
10 1 4.614796495452909 56.38131969105639 0.005377260670413258 0 0 0
11 1 1.8992248853337166 60.21747539158868 2.1642557285872566 0 0 0
12 1 4.614796495452878 60.217475391588685 2.164255728587186 0 0 0
13 1 3.709605958746544 58.93875682474439 0.005377260670399659 0 0 0
14 1 6.425177568865552 58.93875682474438 0.005377260670448622 0 0 0
15 1 0.9940343486273352 43.59413402261499 0.005377260670551988 0 0 0
16 1 0.9940343486273447 47.430289723147425 2.1642557285871913 0 0 0
17 1 0.08884381192109071 46.15157115630331 0.005377260670375178 0 0 0
18 1 2.8044154220401034 46.1515711563033 0.005377260670367019 0 0 0
19 1 0.994034348627327 51.26644542367986 4.390827611309924 0 0 0
20 1 0.08884381192103281 49.98772685683563 2.1642557285871753 0 0 0
21 1 2.804415422040141 49.98772685683566 2.1642557285871398 0 0 0
22 1 1.8992248853336984 48.70900828999147 0.0053772606703751755 0 0 0
23 1 4.614796495452884 48.709008289991445 0.005377260670399658 0 0 0
24 1 0.9940343486272791 55.10260112421192 6.6196996705283535 0 0 0
25 1 0.0888438119210562 53.82388255736785 4.390827611310098 0 0 0
26 1 2.8044154220401523 53.82388255736789 4.390827611310022 0 0 0
27 1 1.8992248853336748 52.545163990523974 2.164255728587273 0 0 0
28 1 4.614796495452885 52.54516399052388 2.1642557285872024 0 0 0
29 1 3.7096059587465433 51.26644542367973 0.005377260670377898 0 0 0
30 1 6.425177568865575 51.26644542367984 0.005377260670432303 0 0 0
31 1 0.9940343486273389 58.938756824744345 8.84854804357222 0 0 0
32 1 0.08884381192102761 57.66003825790047 6.619699670528364 0 0 0
33 1 2.8044154220401456 57.660038257900545 6.619699670528364 0 0 0
34 1 1.899224885333713 56.38131969105646 4.390827611310017 0 0 0
35 1 4.614796495452911 56.381319691056405 4.3908276113100335 0 0 0
36 1 3.709605958746519 55.10260112421196 2.1642557285871287 0 0 0
37 1 6.425177568865566 55.10260112421212 2.1642557285870665 0 0 0
38 1 5.519987032159201 53.82388255736796 0.005377260670462224 0 0 0
39 1 8.235558642278317 53.82388255736791 0.005377260670478545 0 0 0
40 1 1.8992248853337477 60.21747539158861 6.619699670528343 0 0 0
41 1 4.6147964954529 60.21747539158861 6.619699670528272 0 0 0
42 1 3.7096059587465064 58.938756824744424 4.390827611310098 0 0 0
43 1 6.425177568865523 58.93875682474443 4.390827611310131 0 0 0
44 1 5.5199870321592295 57.66003825790036 2.1642557285870825 0 0 0
45 1 8.235558642278342 57.66003825790035 2.1642557285870225 0 0 0
46 1 7.330368105571937 56.3813196910564 0.005377260670489425 0 0 0
47 1 10.045939715691052 56.38131969105633 0.0053772606705057464 0 0 0
48 1 7.330368105571913 60.217475391588685 2.164255728587167 0 0 0
49 1 10.045939715691073 60.21747539158861 2.1642557285871806 0 0 0
50 1 9.140749178984667 58.93875682474438 0.005377260670478544 0 0 0
51 1 11.856320789103783 58.938756824744374 0.005377260670508468 0 0 0
52 1 0.9940343486273301 35.921822621550284 0.005377260670467664 0 0 0
53 1 0.9940343486274121 39.75797832208252 2.1642557285872104 0 0 0
54 1 0.08884381192105013 38.479259755238466 0.005377260670437741 0 0 0
55 1 2.8044154220401643 38.47925975523854 0.005377260670459503 0 0 0
56 1 0.9940343486273119 43.594134022615016 4.390827611310077 0 0 0
57 1 0.08884381192108999 42.31541545577114 2.1642557285870936 0 0 0
58 1 2.8044154220400523 42.31541545577097 2.1642557285870225 0 0 0
59 1 1.8992248853338403 41.03669688892679 0.005377260670410541 0 0 0
60 1 4.614796495452833 41.036696888926706 0.005377260670399659 0 0 0
61 1 0.9940343486273338 47.430289723147524 6.619699670528397 0 0 0
62 1 0.08884381192112786 46.151571156303355 4.39082761131006 0 0 0
63 1 2.8044154220400963 46.15157115630337 4.390827611310011 0 0 0
64 1 1.8992248853336664 44.87285258945899 2.1642557285870936 0 0 0
65 1 4.614796495452884 44.87285258945897 2.1642557285871504 0 0 0
66 1 3.709605958746537 43.594134022614966 0.005377260670473102 0 0 0
67 1 6.425177568865512 43.594134022614945 0.00537726067044318 0 0 0
68 1 0.9940343486273335 51.266445423680054 8.848548043572226 0 0 0
69 1 0.08884381192104757 49.98772685683543 6.6196996705282825 0 0 0
70 1 2.8044154220401127 49.987726856835444 6.619699670528294 0 0 0
71 1 1.899224885333654 48.709008289991374 4.390827611310088 0 0 0
72 1 4.614796495452937 48.709008289991374 4.3908276113100495 0 0 0
73 1 3.7096059587465517 47.43028972314739 2.1642557285872077 0 0 0
74 1 6.425177568865582 47.430289723147425 2.164255728587167 0 0 0
75 1 5.519987032159191 46.151571156303355 0.005377260670356137 0 0 0
76 1 8.23555864227832 46.15157115630331 0.005377260670364298 0 0 0
77 1 0.088843811921099 53.82388255736779 8.848548043572187 0 0 0
78 1 2.804415422040089 53.82388255736777 8.848548043572176 0 0 0
79 1 1.8992248853337141 52.545163990524095 6.619699670528435 0 0 0
80 1 4.614796495452901 52.54516399052409 6.619699670528386 0 0 0
81 1 3.7096059587465797 51.26644542367986 4.390827611309935 0 0 0
82 1 6.425177568865504 51.26644542367986 4.390827611309973 0 0 0
83 1 5.519987032159179 49.98772685683566 2.164255728587186 0 0 0
84 1 8.235558642278328 49.987726856835636 2.1642557285871153 0 0 0
85 1 7.330368105571903 48.70900828999141 0.00537726067042686 0 0 0
86 1 10.045939715691102 48.70900828999141 0.0053772606704459 0 0 0
87 1 1.8992248853336695 56.38131969105647 8.84854804357216 0 0 0
88 1 4.6147964954528975 56.3813196910565 8.848548043572181 0 0 0
89 1 3.7096059587465735 55.10260112421191 6.619699670528326 0 0 0
90 1 6.4251775688655535 55.10260112421195 6.619699670528315 0 0 0
91 1 5.519987032159178 53.82388255736787 4.390827611310121 0 0 0
92 1 8.235558642278285 53.823882557367845 4.390827611310109 0 0 0
93 1 7.330368105571951 52.54516399052385 2.16425572858711 0 0 0
94 1 10.045939715691034 52.54516399052389 2.1642557285871016 0 0 0
95 1 9.140749178984656 51.26644542367985 0.005377260670473106 0 0 0
96 1 11.856320789103762 51.266445423679734 0.005377260670467666 0 0 0
97 1 3.7096059587465624 58.938756824744324 8.848548043572205 0 0 0
98 1 6.425177568865513 58.938756824744324 8.848548043572205 0 0 0
99 1 5.519987032159199 57.66003825790051 6.619699670528364 0 0 0
100 1 8.23555864227837 57.66003825790041 6.619699670528413 0 0 0
101 1 7.330368105571893 56.3813196910564 4.3908276113100495 0 0 0
102 1 10.045939715691013 56.381319691056405 4.3908276113100495 0 0 0
103 1 9.140749178984677 55.10260112421211 2.16425572858702 0 0 0
104 1 11.85632078910373 55.102601124211986 2.1642557285869737 0 0 0
105 1 10.951130252397391 53.82388255736798 0.0053772606705247885 0 0 0
106 1 13.666701862516515 53.82388255736801 0.005377260670513908 0 0 0
107 1 7.330368105571896 60.217475391588636 6.619699670528294 0 0 0
108 1 10.045939715691066 60.2174753915886 6.6196996705283535 0 0 0
109 1 9.140749178984684 58.938756824744466 4.390827611310077 0 0 0
110 1 11.856320789103751 58.93875682474443 4.390827611310082 0 0 0
111 1 10.951130252397359 57.66003825790049 2.1642557285870363 0 0 0
112 1 13.666701862516486 57.66003825790049 2.1642557285870665 0 0 0
113 1 12.761511325810126 56.38131969105633 0.005377260670481264 0 0 0
114 1 15.477082935929221 56.38131969105624 0.005377260670462221 0 0 0
115 1 12.761511325810105 60.21747539158867 2.1642557285871153 0 0 0
116 1 15.477082935929207 60.217475391588614 2.1642557285871504 0 0 0
117 1 14.571892399222797 58.938756824744424 0.005377260670489427 0 0 0
118 1 17.28746400934198 58.93875682474438 0.005377260670483985 0 0 0
119 1 0.994034348627333 28.249511220485445 0.005377260670516627 0 0 0
120 1 0.9940343486273258 32.08566692101784 2.164255728587197 0 0 0
5153 1 21.813416692873716 26.970792653641404 6.619699670528364 0 0 0
122 1 2.8044154220401736 30.806948354173798 0.005377260670399659 0 0 0
123 1 0.9940343486273068 35.921822621550255 4.390827611309968 0 0 0
124 1 0.08884381192102027 34.64310405470622 2.1642557285872024 0 0 0
125 1 2.804415422040116 34.64310405470618 2.1642557285871016 0 0 0
126 1 1.8992248853337306 33.364385487862016 0.005377260670388779 0 0 0
127 1 4.614796495452913 33.36438548786203 0.00537726067042414 0 0 0
128 1 0.9940343486273161 39.75797832208256 6.6196996705284565 0 0 0
129 1 0.08884381192102225 38.479259755238495 4.3908276113100495 0 0 0
130 1 2.8044154220401403 38.479259755238544 4.3908276113100335 0 0 0
131 1 1.8992248853336469 37.20054118839438 2.16425572858708 0 0 0
132 1 4.614796495452831 37.20054118839439 2.1642557285870825 0 0 0
133 1 3.7096059587465255 35.92182262155023 0.005377260670459502 0 0 0
134 1 6.425177568865581 35.92182262155014 0.005377260670481264 0 0 0
135 1 0.9940343486273202 43.59413402261493 8.848548043572205 0 0 0
136 1 0.08884381192108248 42.31541545577104 6.619699670528386 0 0 0
137 1 2.8044154220401167 42.31541545577105 6.619699670528343 0 0 0
138 1 1.8992248853337041 41.03669688892672 4.390827611310006 0 0 0
139 1 4.614796495452927 41.03669688892671 4.390827611310077 0 0 0
140 1 3.7096059587465167 39.75797832208251 2.1642557285870554 0 0 0
141 1 6.425177568865518 39.75797832208258 2.1642557285871127 0 0 0
142 1 5.519987032159138 38.47925975523863 0.005377260670443182 0 0 0
143 1 8.235558642278384 38.47925975523855 0.00537726067042414 0 0 0
144 1 0.08884381192107182 46.1515711563035 8.848548043572176 0 0 0
145 1 2.804415422040125 46.151571156303476 8.848548043572176 0 0 0
146 1 1.8992248853336837 44.872852589458965 6.6196996705282825 0 0 0
147 1 4.614796495452859 44.872852589458965 6.619699670528376 0 0 0
148 1 3.709605958746592 43.594134022614995 4.390827611310088 0 0 0
149 1 6.425177568865517 43.59413402261494 4.390827611309968 0 0 0
150 1 5.5199870321592455 42.315415455771074 2.164255728587126 0 0 0
151 1 8.235558642278338 42.31541545577107 2.1642557285872486 0 0 0
152 1 7.33036810557192 41.03669688892671 0.005377260670350696 0 0 0
153 1 10.045939715691034 41.036696888926684 0.005377260670364297 0 0 0
154 1 1.8992248853337121 48.709008289991154 8.848548043572181 0 0 0
155 1 4.614796495452909 48.70900828999127 8.848548043572205 0 0 0
156 1 3.7096059587465513 47.43028972314748 6.619699670528413 0 0 0
157 1 6.42517756886555 47.43028972314751 6.619699670528376 0 0 0
158 1 5.51998703215918 46.15157115630339 4.39082761130999 0 0 0
159 1 8.235558642278328 46.15157115630333 4.390827611309968 0 0 0
160 1 7.3303681055719805 44.872852589458965 2.1642557285872077 0 0 0
161 1 10.04593971569102 44.87285258945881 2.164255728587194 0 0 0
162 1 9.140749178984699 43.59413402261505 0.0053772606704595004 0 0 0
163 1 11.856320789103773 43.59413402261499 0.005377260670538387 0 0 0
164 1 3.709605958746604 51.266445423680004 8.848548043572237 0 0 0
165 1 6.425177568865514 51.26644542367996 8.848548043572226 0 0 0
166 1 5.519987032159189 49.987726856835465 6.619699670528326 0 0 0
167 1 8.235558642278377 49.98772685683546 6.619699670528305 0 0 0
168 1 7.330368105571907 48.70900828999137 4.390827611310077 0 0 0
169 1 10.04593971569103 48.70900828999141 4.390827611310104 0 0 0
170 1 9.140749178984581 47.43028972314746 2.164255728587172 0 0 0
171 1 11.856320789103815 47.430289723147524 2.1642557285870936 0 0 0
172 1 10.951130252397405 46.15157115630332 0.005377260670342537 0 0 0
173 1 13.666701862516497 46.15157115630331 0.005377260670375178 0 0 0
174 1 5.519987032159195 53.82388255736777 8.848548043572176 0 0 0
175 1 8.235558642278338 53.82388255736782 8.848548043572155 0 0 0
176 1 7.330368105571912 52.54516399052408 6.619699670528376 0 0 0
177 1 10.04593971569108 52.54516399052401 6.619699670528435 0 0 0
178 1 9.140749178984677 51.266445423679855 4.390827611310011 0 0 0
179 1 11.856320789103751 51.26644542367983 4.390827611309968 0 0 0
180 1 10.951130252397434 49.98772685683563 2.1642557285870745 0 0 0
181 1 13.666701862516472 49.987726856835614 2.1642557285871398 0 0 0
182 1 12.761511325810051 48.70900828999141 0.0053772606704785425 0 0 0
183 1 15.477082935929207 48.70900828999136 0.00537726067042414 0 0 0
184 1 7.33036810557198 56.38131969105646 8.848548043572155 0 0 0
185 1 10.045939715691024 56.38131969105641 8.848548043572036 0 0 0
186 1 9.140749178984692 55.10260112421206 6.619699670528419 0 0 0
187 1 11.856320789103759 55.102601124211915 6.619699670528468 0 0 0
188 1 10.951130252397423 53.82388255736787 4.390827611310109 0 0 0
189 1 13.666701862516465 53.82388255736779 4.390827611310115 0 0 0
190 1 12.761511325810119 52.54516399052391 2.1642557285871504 0 0 0
191 1 15.477082935929221 52.545163990523825 2.164255728587167 0 0 0
192 1 14.571892399222843 51.26644542367985 0.005377260670448625 0 0 0
193 1 17.287464009341978 51.26644542367979 0.005377260670467667 0 0 0
194 1 9.140749178984695 58.93875682474437 8.848548043572166 0 0 0
195 1 11.856320789103759 58.938756824744324 8.848548043572187 0 0 0
196 1 10.951130252397359 57.66003825790047 6.619699670528446 0 0 0
197 1 13.66670186251649 57.66003825790044 6.619699670528435 0 0 0
198 1 12.761511325810137 56.38131969105644 4.390827611310077 0 0 0
199 1 15.477082935929243 56.38131969105648 4.390827611310082 0 0 0
200 1 14.571892399222854 55.102601124212 2.1642557285869466 0 0 0
201 1 17.28746400934191 55.10260112421204 2.164255728587009 0 0 0
202 1 16.38227347263554 53.823882557368016 0.005377260670492147 0 0 0
203 1 19.09784508275471 53.82388255736801 0.005377260670492147 0 0 0
204 1 12.761511325810073 60.21747539158863 6.619699670528326 0 0 0
205 1 15.477082935929271 60.2174753915886 6.619699670528315 0 0 0
206 1 14.571892399222865 58.93875682474438 4.390827611310077 0 0 0
207 1 17.28746400934195 58.93875682474441 4.390827611310088 0 0 0
208 1 16.382273472635603 57.66003825790049 2.164255728587126 0 0 0
209 1 19.097845082754663 57.66003825790051 2.164255728587058 0 0 0
210 1 18.192654546048328 56.381319691056326 0.005377260670459501 0 0 0
211 1 20.908226156167366 56.38131969105633 0.005377260670470382 0 0 0
212 1 18.192654546048306 60.21747539158859 2.1642557285872104 0 0 0
213 1 20.908226156167398 60.21747539158865 2.1642557285872104 0 0 0
214 1 20.003035619461016 58.93875682474437 0.005377260670473104 0 0 0
215 1 0.9940343486273128 20.577199819420816 0.005377260670554711 0 0 0
216 1 0.9940343486272755 24.413355519953093 2.1642557285871016 0 0 0
217 1 0.08884381192099913 23.134636953108995 0.005377260670524788 0 0 0
218 1 2.804415422040152 23.134636953108938 0.005377260670432303 0 0 0
219 1 0.9940343486273255 28.249511220485502 4.39082761131006 0 0 0
220 1 0.08884381192112123 26.97079265364149 2.164255728587009 0 0 0
221 1 2.804415422040084 26.97079265364147 2.1642557285870283 0 0 0
222 1 1.8992248853336922 25.69207408679737 0.0053772606704187 0 0 0
223 1 4.614796495452913 25.69207408679732 0.005377260670437739 0 0 0
224 1 0.994034348627305 32.08566692101788 6.619699670528413 0 0 0
225 1 0.08884381192107513 30.806948354173787 4.390827611310006 0 0 0
226 1 2.8044154220401447 30.80694835417379 4.3908276113100335 0 0 0
227 1 1.8992248853336517 29.528229787329607 2.1642557285870936 0 0 0
228 1 4.614796495452878 29.528229787329586 2.1642557285871287 0 0 0
229 1 3.709605958746555 28.249511220485466 0.005377260670448621 0 0 0
230 1 6.425177568865528 28.249511220485452 0.005377260670448622 0 0 0
231 1 0.9940343486273087 35.92182262155021 8.848548043572166 0 0 0
232 1 0.08884381192109589 34.643104054706114 6.619699670528446 0 0 0
233 1 2.8044154220401505 34.64310405470617 6.619699670528348 0 0 0
234 1 1.8992248853337046 33.364385487861995 4.390827611309973 0 0 0
235 1 4.614796495452894 33.364385487862 4.390827611310098 0 0 0
236 1 3.709605958746511 32.085666921017854 2.164255728587126 0 0 0
237 1 6.425177568865578 32.08566692101787 2.1642557285870936 0 0 0
238 1 5.519987032159172 30.806948354173805 0.005377260670410538 0 0 0
239 1 8.235558642278345 30.80694835417379 0.005377260670407819 0 0 0
240 1 0.08884381192110369 38.47925975523859 8.84854804357216 0 0 0
241 1 2.804415422040112 38.47925975523866 8.84854804357215 0 0 0
242 1 1.8992248853337026 37.20054118839438 6.619699670528376 0 0 0
243 1 4.614796495452887 37.20054118839441 6.619699670528326 0 0 0
244 1 3.7096059587465584 35.92182262155023 4.390827611310072 0 0 0
245 1 6.425177568865556 35.921822621550206 4.39082761131006 0 0 0
246 1 5.519987032159231 34.64310405470618 2.164255728587009 0 0 0
247 1 8.235558642278306 34.6431040547063 2.1642557285871016 0 0 0
248 1 7.330368105571888 33.36438548786204 0.005377260670418701 0 0 0
249 1 10.045939715691034 33.36438548786198 0.005377260670377897 0 0 0
250 1 1.8992248853336828 41.03669688892666 8.848548043572112 0 0 0
251 1 4.614796495452909 41.036696888926635 8.848548043572176 0 0 0
252 1 3.7096059587465917 39.75797832208252 6.619699670528397 0 0 0
253 1 6.425177568865524 39.75797832208254 6.619699670528343 0 0 0
254 1 5.519987032159188 38.47925975523863 4.390827611310098 0 0 0
255 1 8.235558642278317 38.47925975523859 4.390827611310121 0 0 0
256 1 7.330368105572003 37.20054118839426 2.16425572858708 0 0 0
257 1 10.045939715691016 37.200541188394226 2.1642557285870443 0 0 0
258 1 9.140749178984635 35.92182262155026 0.005377260670513906 0 0 0
259 1 11.856320789103794 35.921822621550255 0.005377260670513907 0 0 0
260 1 3.7096059587465886 43.594134022615 8.848548043572181 0 0 0
261 1 6.425177568865535 43.59413402261498 8.848548043572176 0 0 0
262 1 5.519987032159185 42.315415455770996 6.619699670528332 0 0 0
263 1 8.235558642278331 42.315415455770975 6.619699670528413 0 0 0
264 1 7.3303681055719485 41.03669688892672 4.390827611310017 0 0 0
265 1 10.04593971569096 41.036696888926706 4.390827611310011 0 0 0
266 1 9.140749178984656 39.75797832208261 2.1642557285870936 0 0 0
267 1 11.856320789103787 39.75797832208259 2.1642557285871042 0 0 0
268 1 10.951130252397359 38.47925975523855 0.005377260670437741 0 0 0
269 1 13.66670186251648 38.479259755238516 0.005377260670424141 0 0 0
270 1 5.5199870321591735 46.1515711563034 8.84854804357217 0 0 0
271 1 8.235558642278367 46.15157115630341 8.848548043572155 0 0 0
272 1 7.3303681055719485 44.87285258945899 6.619699670528397 0 0 0
273 1 10.045939715691045 44.87285258945895 6.619699670528386 0 0 0
274 1 9.14074917898468 43.594134022615016 4.390827611309919 0 0 0
275 1 11.856320789103766 43.59413402261504 4.390827611310017 0 0 0
276 1 10.951130252397434 42.315415455771166 2.164255728587126 0 0 0
277 1 13.666701862516451 42.315415455771074 2.1642557285871016 0 0 0
278 1 12.761511325810112 41.03669688892673 0.0053772606704105405 0 0 0
279 1 15.477082935929229 41.036696888926606 0.005377260670377898 0 0 0
280 1 7.330368105571915 48.709008289991246 8.848548043572205 0 0 0
281 1 10.045939715691055 48.709008289991246 8.848548043572166 0 0 0
282 1 9.140749178984656 47.430289723147546 6.619699670528419 0 0 0
283 1 11.856320789103787 47.43028972314755 6.619699670528397 0 0 0
284 1 10.951130252397409 46.15157115630329 4.390827611310039 0 0 0
285 1 13.666701862516469 46.15157115630331 4.390827611310121 0 0 0
286 1 12.761511325810059 44.87285258945883 2.1642557285871127 0 0 0
287 1 15.477082935929264 44.87285258945878 2.1642557285870665 0 0 0
288 1 14.57189239922284 43.59413402261505 0.005377260670535668 0 0 0
289 1 17.28746400934192 43.59413402261504 0.005377260670489424 0 0 0
290 1 9.140749178984677 51.26644542367997 8.848548043572176 0 0 0
291 1 11.856320789103773 51.26644542367993 8.848548043572166 0 0 0
292 1 10.951130252397363 49.987726856835465 6.619699670528326 0 0 0
293 1 13.666701862516465 49.98772685683538 6.619699670528376 0 0 0
294 1 12.76151132581009 48.70900828999141 4.390827611310088 0 0 0
295 1 15.47708293592924 48.709008289991374 4.390827611310072 0 0 0
296 1 14.571892399222811 47.43028972314757 2.164255728587091 0 0 0
297 1 17.28746400934199 47.430289723147425 2.1642557285871153 0 0 0
298 1 16.38227347263559 46.15157115630333 0.005377260670375178 0 0 0
299 1 19.097845082754695 46.15157115630334 0.0053772606704105405 0 0 0
300 1 10.951130252397412 53.823882557367874 8.848548043572041 0 0 0
301 1 13.666701862516451 53.82388255736776 8.848548043572112 0 0 0
302 1 12.761511325810066 52.545163990524145 6.619699670528446 0 0 0
303 1 15.47708293592924 52.54516399052407 6.619699670528435 0 0 0
304 1 14.571892399222861 51.26644542367989 4.390827611309903 0 0 0
305 1 17.28746400934195 51.266445423679905 4.390827611309924 0 0 0
306 1 16.382273472635585 49.987726856835714 2.164255728587194 0 0 0
307 1 19.097845082754674 49.98772685683578 2.1642557285871016 0 0 0
308 1 18.19265454604833 48.709008289991395 0.005377260670413259 0 0 0
309 1 20.90822615616737 48.70900828999139 0.005377260670410536 0 0 0
310 1 12.76151132581008 56.38131969105649 8.848548043572013 0 0 0
311 1 15.477082935929275 56.3813196910565 8.848548043572041 0 0 0
312 1 14.571892399222826 55.10260112421199 6.619699670528413 0 0 0
313 1 17.28746400934193 55.10260112421205 6.619699670528425 0 0 0
314 1 16.382273472635593 53.82388255736781 4.390827611310098 0 0 0
315 1 19.097845082754674 53.82388255736776 4.390827611310072 0 0 0
316 1 18.192654546048317 52.54516399052377 2.1642557285871833 0 0 0
317 1 20.908226156167366 52.54516399052388 2.164255728587137 0 0 0
318 1 20.003035619461016 51.26644542367976 0.005377260670494866 0 0 0
319 1 14.57189239922284 58.938756824744324 8.84854804357216 0 0 0
320 1 17.287464009341925 58.938756824744324 8.848548043572094 0 0 0
321 1 16.382273472635617 57.66003825790046 6.619699670528435 0 0 0
322 1 19.09784508275468 57.66003825790048 6.619699670528435 0 0 0
323 1 18.192654546048267 56.381319691056476 4.390827611310088 0 0 0
324 1 20.908226156167395 56.381319691056426 4.3908276113101365 0 0 0
325 1 20.00303561946104 55.102601124212 2.164255728586985 0 0 0
326 1 18.192654546048267 60.217475391588515 6.619699670528315 0 0 0
327 1 20.90822615616742 60.217475391588515 6.619699670528376 0 0 0
328 1 20.003035619461016 58.93875682474444 4.390827611310104 0 0 0
329 1 0.9940343486273508 12.904888418356029 0.0053772606705030255 0 0 0
330 1 0.9940343486273276 16.741044118888357 2.164255728587091 0 0 0
331 1 0.08884381192103628 15.46232555204433 0.005377260670478544 0 0 0
332 1 2.8044154220401496 15.462325552044346 0.005377260670432301 0 0 0
333 1 0.9940343486273405 20.57719981942081 4.3908276113100495 0 0 0
334 1 0.08884381192106117 19.298481252576803 2.1642557285870336 0 0 0
335 1 2.8044154220401007 19.2984812525768 2.164255728587126 0 0 0
336 1 1.8992248853336928 18.0197626857325 0.005377260670391498 0 0 0
337 1 4.614796495452891 18.01976268573246 0.005377260670391497 0 0 0
338 1 0.994034348627338 24.41335551995316 6.619699670528376 0 0 0
339 1 0.08884381192107202 23.134636953109027 4.390827611310039 0 0 0
340 1 2.804415422040149 23.134636953109027 4.3908276113100655 0 0 0
341 1 1.899224885333658 21.855918386264825 2.1642557285870008 0 0 0
342 1 4.614796495452853 21.855918386264868 2.1642557285870443 0 0 0
343 1 3.7096059587465193 20.577199819420887 0.005377260670470384 0 0 0
344 1 6.425177568865561 20.57719981942082 0.005377260670448623 0 0 0
345 1 0.9940343486272778 28.24951122048551 8.848548043572176 0 0 0
346 1 0.08884381192104969 26.97079265364143 6.619699670528332 0 0 0
347 1 2.8044154220401345 26.97079265364143 6.619699670528294 0 0 0
348 1 1.89922488533371 25.692074086797295 4.390827611310082 0 0 0
349 1 4.614796495452894 25.692074086797284 4.390827611310082 0 0 0
350 1 3.7096059587465966 24.41335551995311 2.164255728587126 0 0 0
351 1 6.425177568865553 24.413355519953125 2.1642557285870283 0 0 0
352 1 5.519987032159195 23.134636953109016 0.005377260670473104 0 0 0
353 1 8.235558642278313 23.134636953109055 0.005377260670467664 0 0 0
354 1 0.08884381192106616 30.80694835417379 8.848548043572155 0 0 0
355 1 2.804415422040104 30.80694835417381 8.84854804357215 0 0 0
356 1 1.8992248853337095 29.52822978732964 6.619699670528326 0 0 0
357 1 4.614796495452895 29.52822978732964 6.619699670528305 0 0 0
358 1 3.709605958746585 28.249511220485537 4.390827611310088 0 0 0
359 1 6.425177568865536 28.249511220485488 4.3908276113100495 0 0 0
360 1 5.519987032159198 26.970792653641467 2.1642557285870363 0 0 0
361 1 8.235558642278313 26.970792653641457 2.164255728587091 0 0 0
362 1 7.330368105571938 25.69207408679727 0.005377260670443181 0 0 0
363 1 10.045939715691024 25.692074086797263 0.00537726067042686 0 0 0
364 1 1.8992248853336564 33.36438548786198 8.848548043572176 0 0 0
365 1 4.61479649545292 33.36438548786203 8.848548043572187 0 0 0
366 1 3.709605958746616 32.08566692101784 6.619699670528326 0 0 0
367 1 6.425177568865523 32.085666921017854 6.619699670528326 0 0 0
368 1 5.519987032159158 30.80694835417379 4.390827611310077 0 0 0
369 1 8.235558642278352 30.80694835417378 4.390827611310028 0 0 0
370 1 7.330368105571963 29.52822978732961 2.1642557285871504 0 0 0
371 1 10.04593971569103 29.52822978732958 2.1642557285871615 0 0 0
372 1 9.14074917898467 28.2495112204855 0.0053772606704323 0 0 0
373 1 11.856320789103798 28.249511220485505 0.005377260670483984 0 0 0
374 1 3.7096059587465766 35.921822621550206 8.84854804357216 0 0 0
375 1 6.425177568865528 35.92182262155019 8.84854804357215 0 0 0
376 1 5.519987032159176 34.64310405470613 6.619699670528343 0 0 0
377 1 8.235558642278331 34.643104054706136 6.619699670528376 0 0 0
378 1 7.330368105571937 33.364385487862 4.390827611310077 0 0 0
379 1 10.045939715691034 33.36438548786198 4.390827611310039 0 0 0
380 1 9.140749178984624 32.08566692101783 2.1642557285871398 0 0 0
381 1 11.85632078910377 32.085666921017896 2.164255728587156 0 0 0
382 1 10.951130252397395 30.8069483541738 0.0053772606703887775 0 0 0
383 1 13.666701862516472 30.806948354173763 0.005377260670402379 0 0 0
384 1 5.519987032159161 38.47925975523868 8.84854804357215 0 0 0
385 1 8.23555864227836 38.47925975523867 8.848548043572176 0 0 0
386 1 7.330368105571924 37.200541188394425 6.619699670528326 0 0 0
387 1 10.045939715691087 37.2005411883944 6.6196996705283535 0 0 0
388 1 9.140749178984674 35.92182262155023 4.390827611309973 0 0 0
389 1 11.85632078910373 35.92182262155027 4.390827611310022 0 0 0
390 1 10.951130252397405 34.643104054706264 2.164255728587137 0 0 0
391 1 13.666701862516483 34.643104054706214 2.1642557285870665 0 0 0
392 1 12.76151132581013 33.36438548786201 0.00537726067041054 0 0 0
393 1 15.47708293592921 33.36438548786201 0.005377260670432301 0 0 0
394 1 7.330368105571956 41.03669688892667 8.84854804357215 0 0 0
395 1 10.045939715691013 41.03669688892667 8.848548043572112 0 0 0
396 1 9.140749178984667 39.757978322082565 6.619699670528376 0 0 0
397 1 11.856320789103759 39.7579783220825 6.619699670528397 0 0 0
398 1 10.951130252397402 38.47925975523854 4.390827611310121 0 0 0
399 1 13.666701862516472 38.479259755238566 4.3908276113101365 0 0 0
400 1 12.761511325810073 37.20054118839426 2.1642557285870225 0 0 0
401 1 15.477082935929232 37.20054118839428 2.1642557285870363 0 0 0
402 1 14.571892399222815 35.921822621550234 0.005377260670494865 0 0 0
403 1 17.287464009341967 35.92182262155023 0.005377260670524787 0 0 0
404 1 9.140749178984656 43.594134022615 8.848548043572144 0 0 0
405 1 11.856320789103748 43.594134022614966 8.84854804357216 0 0 0
406 1 10.95113025239742 42.31541545577105 6.619699670528413 0 0 0
407 1 13.666701862516451 42.31541545577105 6.619699670528348 0 0 0
408 1 12.761511325810154 41.03669688892671 4.3908276113100495 0 0 0
409 1 15.477082935929246 41.03669688892665 4.390827611310011 0 0 0
410 1 14.57189239922289 39.75797832208263 2.1642557285871153 0 0 0
411 1 17.287464009341836 39.75797832208263 2.1642557285871042 0 0 0
412 1 16.382273472635593 38.47925975523858 0.005377260670454061 0 0 0
413 1 19.09784508275468 38.4792597552385 0.005377260670402379 0 0 0
414 1 10.951130252397352 46.151571156303405 8.848548043572187 0 0 0
415 1 13.666701862516476 46.15157115630347 8.8485480435722 0 0 0
416 1 12.761511325810098 44.87285258945893 6.6196996705282825 0 0 0
417 1 15.477082935929214 44.87285258945897 6.619699670528294 0 0 0
418 1 14.571892399222833 43.59413402261502 4.39082761131006 0 0 0
419 1 17.287464009341956 43.59413402261491 4.3908276113099625 0 0 0
420 1 16.382273472635617 42.3154154557711 2.1642557285872295 0 0 0
421 1 19.097845082754667 42.315415455771 2.1642557285872157 0 0 0
422 1 18.192654546048278 41.03669688892671 0.005377260670367018 0 0 0
423 1 20.90822615616738 41.03669688892673 0.005377260670391499 0 0 0
424 1 12.761511325810083 48.709008289991274 8.848548043572134 0 0 0
425 1 15.47708293592925 48.70900828999124 8.848548043572112 0 0 0
426 1 14.57189239922285 47.430289723147546 6.619699670528413 0 0 0
427 1 17.287464009341896 47.430289723147546 6.619699670528419 0 0 0
428 1 16.382273472635582 46.151571156303355 4.390827611310126 0 0 0
429 1 19.097845082754727 46.15157115630332 4.39082761130999 0 0 0
430 1 18.192654546048303 44.87285258945894 2.164255728587172 0 0 0
431 1 20.908226156167355 44.87285258945893 2.1642557285871504 0 0 0
432 1 20.003035619461055 43.594134022615016 0.005377260670478544 0 0 0
433 1 14.57189239922285 51.26644542368001 8.848548043572192 0 0 0
434 1 17.287464009341928 51.266445423679976 8.848548043572166 0 0 0
435 1 16.382273472635603 49.987726856835444 6.619699670528386 0 0 0
436 1 19.0978450827547 49.987726856835486 6.619699670528348 0 0 0
437 1 18.19265454604827 48.70900828999137 4.390827611310121 0 0 0
438 1 20.908226156167352 48.70900828999136 4.390827611310121 0 0 0
439 1 20.003035619461027 47.43028972314736 2.1642557285871398 0 0 0
440 1 16.38227347263559 53.823882557367774 8.848548043572176 0 0 0