LAMMPS data file via write_data, version 2 Aug 2023, timestep = 1805, units = metal

14400 atoms
3 atom types

0.08884894104387636 65.26255732565654 xlo xhi
0.11769850693373139 61.49619820141399 ylo yhi
-22.325860217891773 75.68505999347127 zlo zhi

Masses

1 183.84
2 1.008
3 4.0026

Atoms # atomic

1 1 0.9940393352745641 28.249510866903726 0.0053723318969612745 0 0 0
9033 1 32.67570313335019 7.7900109687436645 26.679599887789742 0 0 0
3 1 0.9940393352745669 20.577198405093714 0.005372331896961359 0 0 0
4 1 0.9940393352745638 24.41335463599872 2.164233859013843 0 0 0
3045 1 30.865322344888753 5.2325734814736276 26.679599887789742 0 0 0
6 1 2.8044201237360507 23.13463589236372 0.005372331896969436 0 0 0
7 1 0.9940393352745684 28.24951086690377 4.3907634558678605 0 0 0
3020 1 31.770512739119436 2.6751359942036417 26.679599887789742 0 0 0
9 1 2.8044201237360515 26.970792123268748 2.164233859013843 0 0 0
10 1 1.8992297295052953 25.692073379633744 0.005372331896969436 0 0 0
11 1 4.614800912197491 25.692073379633744 0.005372331896955885 0 0 0
12 1 2.8044201237360373 30.806948354173745 4.39076345586786 0 0 0
13 1 1.8992297295053069 29.52822961053875 2.164233859013857 0 0 0
14 1 4.614800912197494 29.52822961053874 2.164233859013862 0 0 0
15 1 3.709610517966773 28.249510866903726 0.005372331896945017 0 0 0
16 1 6.425181700658959 28.249510866903737 0.005372331896955883 0 0 0
17 1 8.23556248912042 30.806948354173745 0.00537233189695586 0 0 0
18 1 0.9940393352745679 12.904885943283674 0.00537233189697485 0 0 0
19 1 0.9940393352745434 16.74104217418868 2.1642338590138674 0 0 0
5351 1 27.244560767965798 30.806948354173752 22.221667481420134 0 0 0
21 1 2.804420123736047 15.462323430553683 0.005372331896974891 0 0 0
22 1 0.9940393352745605 20.5771984050937 4.3907634558678605 0 0 0
7909 1 32.67570313335018 15.46232343055369 22.22166748142017 0 0 0
24 1 2.804420123736042 19.29847966145871 2.1642338590138515 0 0 0
25 1 1.8992297295052951 18.019760917823685 0.005372331896966694 0 0 0
26 1 4.614800912197504 18.019760917823692 0.0053723318969667415 0 0 0
27 1 0.9940393352745823 24.413354635998722 6.619575356493621 0 0 0
5323 1 29.960131950657953 30.80694835417376 17.76382742622319 0 0 0
29 1 2.804420123736026 23.134635892363733 4.390763455867877 0 0 0
30 1 1.8992297295053038 21.855917148728707 2.1642338590138515 0 0 0
31 1 4.614800912197506 21.855917148728714 2.164233859013843 0 0 0
32 1 3.709610517966765 20.577198405093718 0.005372331896969489 0 0 0
33 1 6.425181700658957 20.577198405093718 0.005372331896966761 0 0 0
34 1 0.9940393352745711 28.249510866903726 8.84842498354206 0 0 0
2822 1 31.770512739119447 10.347448456013678 26.679599887789742 0 0 0
36 1 2.804420123736037 26.970792123268723 6.619575356493582 0 0 0
37 1 1.899229729505315 25.692073379633733 4.3907634558678605 0 0 0
38 1 4.614800912197507 25.692073379633722 4.390763455867838 0 0 0
39 1 3.7096105179667673 24.413354635998726 2.1642338590138457 0 0 0
40 1 6.425181700658952 24.413354635998722 2.1642338590138515 0 0 0
41 1 5.51999130642823 23.134635892363736 0.0053723318969613795 0 0 0
42 1 8.23556248912043 23.13463589236373 0.005372331896966736 0 0 0
43 1 2.80442012373603 30.806948354173755 8.84842498354206 0 0 0
44 1 1.8992297295053033 29.52822961053875 6.61957535649356 0 0 0
45 1 4.614800912197507 29.528229610538755 6.619575356493598 0 0 0
46 1 3.7096105179667704 28.24951086690376 4.390763455867854 0 0 0
47 1 6.425181700658953 28.24951086690375 4.3907634558678605 0 0 0
48 1 5.519991306428217 26.97079212326874 2.164233859013843 0 0 0
49 1 8.235562489120435 26.970792123268744 2.1642338590138515 0 0 0
50 1 7.330372094889699 25.692073379633758 0.005372331896969377 0 0 0
51 1 10.04594327758188 25.69207337963374 0.005372331896966731 0 0 0
52 1 7.3303720948897 29.528229610538723 2.164233859013857 0 0 0
53 1 10.0459432775819 29.528229610538755 2.164233859013857 0 0 0
54 1 9.140752883351151 28.24951086690374 0.005372331896980356 0 0 0
55 1 11.856324066043353 28.249510866903737 0.005372331896945014 0 0 0
56 1 13.666704854504808 30.806948354173738 0.005372331896969426 0 0 0
57 1 0.9940393352745642 5.23257348147365 0.00537233189698041 0 0 0
58 1 0.994039335274559 9.068729712378678 2.164233859013873 0 0 0
5261 1 29.960131950657974 30.806948354173752 13.306051697654883 0 0 0
60 1 2.8044201237360524 7.790010968743664 0.005372331896985735 0 0 0
61 1 0.9940393352745613 12.904885943283674 4.390763455867887 0 0 0
5157 1 27.244560767965783 30.806948354173713 8.84842498354206 0 0 0
63 1 2.804420123736041 11.626167199648664 2.164233859013862 0 0 0
64 1 1.8992297295053004 10.347448456013678 0.005372331896961307 0 0 0
65 1 4.614800912197499 10.347448456013675 0.0053723318969748565 0 0 0
66 1 0.9940393352745772 16.741042174188703 6.619575356493609 0 0 0
2744 1 26.339370373735054 2.6751359942036297 26.679599887789742 0 0 0
68 1 2.8044201237360493 15.462323430553681 4.3907634558678605 0 0 0
69 1 1.899229729505308 14.18360468691868 2.164233859013857 0 0 0
70 1 4.614800912197504 14.183604686918693 2.164233859013857 0 0 0
71 1 3.7096105179667505 12.90488594328367 0.005372331896974846 0 0 0
72 1 6.425181700658965 12.904885943283674 0.005372331896969436 0 0 0
73 1 0.994039335274564 20.57719840509372 8.84842498354207 0 0 0
1758 1 2.8044201237360387 23.13463589236374 26.67959988778972 0 0 0
75 1 2.8044201237360435 19.298479661458703 6.619575356493598 0 0 0
76 1 1.8992297295053127 18.019760917823707 4.390763455867877 0 0 0
77 1 4.614800912197497 18.0197609178237 4.390763455867877 0 0 0
78 1 3.7096105179667824 16.74104217418869 2.1642338590138674 0 0 0
79 1 6.425181700658953 16.74104217418867 2.164233859013862 0 0 0
80 1 5.5199913064282375 15.462323430553681 0.005372331896980355 0 0 0
81 1 8.235562489120424 15.462323430553678 0.005372331896969442 0 0 0
82 1 0.9940393352745767 24.413354635998715 11.077217215710457 0 0 0
5141 1 21.813418402581384 30.80694835417377 13.306051697654883 0 0 0
84 1 2.8044201237360498 23.134635892363704 8.848424983542081 0 0 0
85 1 1.899229729505299 21.85591714872871 6.619575356493598 0 0 0
86 1 4.614800912197507 21.85591714872872 6.619575356493582 0 0 0
87 1 3.70961051796676 20.577198405093707 4.3907634558678765 0 0 0
88 1 6.425181700658968 20.5771984050937 4.390763455867866 0 0 0
89 1 5.519991306428223 19.298479661458707 2.164233859013843 0 0 0
90 1 8.235562489120444 19.298479661458707 2.164233859013862 0 0 0
91 1 7.33037209488969 18.019760917823675 0.005372331896980253 0 0 0
92 1 10.045943277581902 18.019760917823685 0.005372331896980397 0 0 0
93 1 0.9940393352745781 28.24951086690376 13.306051697654915 0 0 0
5012 1 29.960131950657978 30.806948354173763 4.390763455867829 0 0 0
95 1 2.804420123736044 26.97079212326875 11.077217215710471 0 0 0
96 1 1.8992297295053195 25.69207337963376 8.848424983542092 0 0 0
97 1 4.614800912197504 25.69207337963374 8.84842498354206 0 0 0
98 1 3.7096105179667576 24.413354635998722 6.61957535649356 0 0 0
99 1 6.425181700658968 24.413354635998754 6.619575356493577 0 0 0
100 1 5.519991306428242 23.134635892363736 4.390763455867839 0 0 0
101 1 8.235562489120424 23.134635892363736 4.390763455867855 0 0 0
102 1 7.330372094889687 21.855917148728725 2.1642338590138457 0 0 0
103 1 10.04594327758189 21.855917148728714 2.1642338590138297 0 0 0
104 1 9.140752883351167 20.577198405093707 0.005372331896980352 0 0 0
105 1 11.856324066043348 20.577198405093704 0.005372331896969439 0 0 0
2162 1 21.81341840258141 23.13463589236371 26.679599887789742 0 0 0
107 1 1.899229729505285 29.52822961053875 11.077217215710467 0 0 0
108 1 4.614800912197493 29.528229610538766 11.077217215710467 0 0 0
109 1 3.7096105179667624 28.249510866903737 8.848424983542092 0 0 0
110 1 6.4251817006589675 28.24951086690373 8.848424983542081 0 0 0
111 1 5.519991306428246 26.97079212326874 6.619575356493598 0 0 0
112 1 8.235562489120433 26.970792123268716 6.619575356493582 0 0 0
113 1 7.330372094889687 25.692073379633708 4.3907634558678605 0 0 0
114 1 10.045943277581882 25.69207337963373 4.390763455867855 0 0 0
115 1 9.140752883351158 24.413354635998722 2.1642338590138515 0 0 0
116 1 11.856324066043364 24.41335463599872 2.164233859013873 0 0 0
117 1 10.951133671812627 23.13463589236371 0.005372331896966751 0 0 0
118 1 13.66670485450482 23.134635892363715 0.005372331896950475 0 0 0
119 1 7.330372094889685 29.52822961053875 6.619575356493598 0 0 0
120 1 10.0459432775819 29.528229610538737 6.619575356493609 0 0 0
121 1 9.140752883351164 28.249510866903762 4.390763455867838 0 0 0
122 1 11.85632406604335 28.249510866903762 4.390763455867838 0 0 0
123 1 10.951133671812615 26.970792123268755 2.1642338590138515 0 0 0
124 1 13.666704854504827 26.970792123268716 2.164233859013857 0 0 0
125 1 12.7615144602741 25.69207337963373 0.005372331896980301 0 0 0
126 1 15.477085642966278 25.692073379633733 0.005372331896966741 0 0 0
127 1 10.951133671812618 30.806948354173752 4.3907634558678765 0 0 0
128 1 13.666704854504811 30.806948354173766 4.39076345586786 0 0 0
129 1 12.76151446027408 29.52822961053874 2.164233859013862 0 0 0
130 1 15.477085642966278 29.528229610538737 2.1642338590138377 0 0 0
131 1 14.571895248735544 28.249510866903737 0.005372331896961221 0 0 0
132 1 17.287466431427735 28.24951086690373 0.0053723318969503275 0 0 0
133 1 16.38227603719701 30.806948354173752 0.005372331896966746 0 0 0
134 1 0.9940393352745434 1.396417250568636 2.164233859013873 0 0 0
2149 1 20.003037614119947 20.577198405093696 26.67959988778972 0 0 0
4820 1 29.960131950657974 30.806948354173738 0.005372331896955804 0 0 0
137 1 0.9940393352745731 5.232573481473645 4.390763455867888 0 0 0
7425 1 32.67570313335017 30.806948354173755 17.76382742622323 0 0 0
139 1 2.8044201237360373 3.953854737838633 2.164233859013873 0 0 0
140 1 1.8992297295052898 2.6751359942036297 0.005372331896985785 0 0 0
141 1 4.6148009121974916 2.675135994203628 0.005372331896996739 0 0 0
142 1 0.9940393352745696 9.068729712378671 6.619575356493621 0 0 0
5489 1 2.8044201237360373 30.806948354173727 26.67959988778972 0 0 0
144 1 2.8044201237360378 7.790010968743656 4.3907634558678765 0 0 0
145 1 1.8992297295053038 6.511292225108651 2.1642338590138785 0 0 0
146 1 4.614800912197495 6.511292225108665 2.164233859013873 0 0 0
147 1 3.7096105179667536 5.23257348147365 0.005372331896980323 0 0 0
148 1 6.4251817006589595 5.232573481473641 0.0053723318969747655 0 0 0
149 1 0.9940393352745811 12.904885943283672 8.848424983542076 0 0 0
7409 1 32.675703133350176 26.970792123268726 15.53489934990568 0 0 0
151 1 2.8044201237360427 11.626167199648677 6.619575356493598 0 0 0
152 1 1.8992297295053004 10.347448456013675 4.3907634558678765 0 0 0
153 1 4.614800912197507 10.347448456013677 4.3907634558678765 0 0 0
154 1 3.7096105179667767 9.068729712378664 2.1642338590138674 0 0 0
155 1 6.425181700658958 9.068729712378667 2.164233859013873 0 0 0
156 1 5.51999130642823 7.790010968743665 0.005372331896974896 0 0 0
157 1 8.235562489120433 7.790010968743664 0.005372331896974872 0 0 0
158 1 0.9940393352745645 16.74104217418869 11.077217215710487 0 0 0
5617 1 8.235562489120431 30.80694835417375 26.67959988778972 0 0 0
160 1 2.804420123736045 15.462323430553694 8.848424983542081 0 0 0
161 1 1.8992297295053293 14.183604686918686 6.619575356493609 0 0 0
162 1 4.614800912197486 14.18360468691868 6.619575356493609 0 0 0
163 1 3.7096105179667753 12.904885943283686 4.39076345586785 0 0 0
164 1 6.425181700658963 12.904885943283679 4.3907634558678765 0 0 0
165 1 5.5199913064282375 11.626167199648677 2.1642338590138865 0 0 0
166 1 8.235562489120436 11.626167199648668 2.164233859013873 0 0 0
167 1 7.3303720948897 10.347448456013677 0.005372331896980229 0 0 0
168 1 10.045943277581879 10.347448456013678 0.00537233189697484 0 0 0
169 1 0.9940393352745651 20.57719840509371 13.306051697654926 0 0 0
2091 1 14.571895248735556 12.90488594328367 26.679599887789728 0 0 0
171 1 2.8044201237360395 19.2984796614587 11.077217215710473 0 0 0
172 1 1.8992297295053029 18.019760917823678 8.848424983542081 0 0 0
173 1 4.614800912197499 18.019760917823685 8.848424983542081 0 0 0
174 1 3.7096105179667607 16.74104217418869 6.619575356493598 0 0 0
175 1 6.425181700658968 16.74104217418868 6.619575356493631 0 0 0
176 1 5.5199913064282375 15.462323430553688 4.3907634558678765 0 0 0
177 1 8.235562489120433 15.462323430553688 4.3907634558678765 0 0 0
178 1 7.33037209488968 14.183604686918677 2.1642338590138674 0 0 0
179 1 10.04594327758189 14.183604686918684 2.164233859013873 0 0 0
180 1 9.140752883351158 12.904885943283682 0.005372331896974854 0 0 0
181 1 11.856324066043358 12.904885943283674 0.005372331896985706 0 0 0
182 1 0.9940393352745814 24.4133546359987 15.534899349905691 0 0 0
7394 1 32.6757031333502 23.13463589236372 13.306051697654915 0 0 0
184 1 2.804420123736052 23.134635892363708 13.3060516976549 0 0 0
185 1 1.899229729505304 21.85591714872872 11.077217215710457 0 0 0
186 1 4.614800912197503 21.855917148728732 11.077217215710457 0 0 0
187 1 3.7096105179667718 20.577198405093714 8.848424983542076 0 0 0
188 1 6.425181700658972 20.57719840509372 8.848424983542092 0 0 0
189 1 5.519991306428248 19.29847966145871 6.619575356493609 0 0 0
190 1 8.235562489120417 19.298479661458703 6.619575356493598 0 0 0
191 1 7.330372094889691 18.019760917823696 4.390763455867877 0 0 0
192 1 10.045943277581875 18.019760917823696 4.39076345586786 0 0 0
193 1 9.140752883351155 16.74104217418869 2.164233859013862 0 0 0
194 1 11.856324066043339 16.74104217418867 2.164233859013862 0 0 0
195 1 10.951133671812634 15.462323430553676 0.005372331896980367 0 0 0
196 1 13.666704854504815 15.46232343055368 0.005372331896980283 0 0 0
197 1 0.9940393352745731 28.249510866903755 17.76382742622323 0 0 0
7381 1 32.675703133350176 19.298479661458707 11.07721721571045 0 0 0
199 1 2.804420123736064 26.970792123268737 15.534899349905707 0 0 0
200 1 1.8992297295053286 25.692073379633698 13.306051697654894 0 0 0
201 1 4.614800912197506 25.69207337963374 13.3060516976549 0 0 0
202 1 3.7096105179667753 24.413354635998715 11.077217215710478 0 0 0
203 1 6.425181700658964 24.413354635998722 11.077217215710473 0 0 0
204 1 5.519991306428245 23.134635892363708 8.84842498354207 0 0 0
205 1 8.235562489120428 23.13463589236371 8.848424983542081 0 0 0
206 1 7.330372094889691 21.855917148728714 6.619575356493582 0 0 0
207 1 10.045943277581896 21.85591714872872 6.619575356493609 0 0 0
208 1 9.140752883351153 20.577198405093696 4.3907634558678765 0 0 0
209 1 11.856324066043362 20.5771984050937 4.390763455867877 0 0 0
210 1 10.951133671812615 19.298479661458707 2.1642338590138674 0 0 0
211 1 13.666704854504836 19.298479661458707 2.164233859013868 0 0 0
212 1 12.761514460274087 18.019760917823668 0.0053723318969666955 0 0 0
213 1 15.477085642966278 18.019760917823696 0.005372331896969441 0 0 0
214 1 2.8044201237360404 30.806948354173727 17.76382742622319 0 0 0
215 1 1.8992297295053362 29.528229610538727 15.534899349905707 0 0 0
216 1 4.614800912197497 29.528229610538723 15.534899349905702 0 0 0
217 1 3.7096105179667753 28.249510866903748 13.306051697654878 0 0 0
218 1 6.4251817006589595 28.249510866903726 13.306051697654915 0 0 0
219 1 5.519991306428234 26.97079212326875 11.077217215710457 0 0 0
220 1 8.23556248912044 26.970792123268744 11.077217215710489 0 0 0
221 1 7.330372094889697 25.692073379633747 8.848424983542081 0 0 0
222 1 10.045943277581882 25.69207337963374 8.848424983542065 0 0 0
223 1 9.140752883351158 24.413354635998733 6.619575356493582 0 0 0
224 1 11.856324066043358 24.413354635998733 6.619575356493582 0 0 0
225 1 10.951133671812634 23.134635892363733 4.3907634558678765 0 0 0
226 1 13.666704854504815 23.13463589236374 4.390763455867865 0 0 0
227 1 12.761514460274086 21.855917148728732 2.164233859013862 0 0 0
228 1 15.47708564296628 21.855917148728704 2.164233859013843 0 0 0
229 1 14.57189524873555 20.57719840509372 0.005372331896969478 0 0 0
230 1 17.28746643142773 20.577198405093707 0.005372331896974851 0 0 0
231 1 8.235562489120426 30.80694835417374 13.306051697654878 0 0 0
232 1 7.33037209488969 29.528229610538737 11.077217215710478 0 0 0
233 1 10.045943277581895 29.528229610538737 11.077217215710478 0 0 0
234 1 9.140752883351167 28.249510866903726 8.848424983542076 0 0 0
235 1 11.856324066043348 28.249510866903737 8.848424983542065 0 0 0
236 1 10.951133671812622 26.970792123268723 6.619575356493582 0 0 0
237 1 13.666704854504834 26.970792123268716 6.619575356493582 0 0 0
238 1 12.761514460274087 25.692073379633715 4.390763455867838 0 0 0
239 1 15.477085642966275 25.69207337963373 4.39076345586786 0 0 0
240 1 14.571895248735546 24.413354635998715 2.164233859013857 0 0 0
241 1 17.287466431427756 24.413354635998722 2.164233859013873 0 0 0
242 1 16.382276037197023 23.134635892363704 0.005372331896950427 0 0 0
243 1 19.097847219889193 23.13463589236373 0.005372331896961285 0 0 0
244 1 10.95113367181262 30.80694835417377 8.848424983542097 0 0 0
245 1 13.666704854504806 30.806948354173766 8.84842498354207 0 0 0
246 1 12.761514460274087 29.52822961053874 6.619575356493598 0 0 0
247 1 15.477085642966276 29.528229610538745 6.619575356493609 0 0 0
248 1 14.571895248735547 28.24951086690375 4.3907634558678765 0 0 0
249 1 17.287466431427745 28.249510866903748 4.39076345586786 0 0 0
250 1 16.38227603719701 26.970792123268723 2.164233859013857 0 0 0
251 1 19.09784721988921 26.970792123268716 2.164233859013843 0 0 0
252 1 18.19265682565847 25.692073379633733 0.005372331896955878 0 0 0
253 1 20.908228008350648 25.69207337963376 0.0053723318969558865 0 0 0
254 1 19.097847219889196 30.80694835417376 4.390763455867838 0 0 0
255 1 18.19265682565847 29.528229610538737 2.1642338590138674 0 0 0
256 1 20.908228008350665 29.52822961053875 2.164233859013843 0 0 0
257 1 20.003037614119943 28.249510866903748 0.005372331896950362 0 0 0
258 1 22.718608796812138 28.249510866903737 0.005372331896950343 0 0 0
259 1 24.528989585273607 30.806948354173763 0.005372331896950412 0 0 0
260 1 0.9940393352745769 1.3964172505686063 6.619575356493621 0 0 0
2040 1 9.14075288335116 5.2325734814736355 26.679599887789728 0 0 0
7370 1 32.67570313335018 15.462323430553681 8.848424983542115 0 0 0
263 1 0.9940393352745706 5.232573481473641 8.84842498354207 0 0 0
2027 1 7.330372094889692 2.675135994203619 26.6795998877897 0 0 0
265 1 2.80442012373605 3.953854737838639 6.619575356493609 0 0 0
266 1 1.899229729505307 2.675135994203624 4.390763455867899 0 0 0
267 1 4.614800912197507 2.675135994203628 4.3907634558678765 0 0 0
268 1 3.709610517966782 1.396417250568637 2.1642338590138674 0 0 0
269 1 6.425181700658943 1.3964172505686487 2.1642338590138674 0 0 0
5352 1 29.960131950657974 30.806948354173752 22.22166748142012 0 0 0
5322 1 27.244560767965798 30.80694835417375 17.76382742622323 0 0 0
272 1 0.9940393352745776 9.068729712378667 11.077217215710489 0 0 0
5315 1 24.528989585273596 30.806948354173752 22.22166748142012 0 0 0
274 1 2.8044201237360347 7.790010968743675 8.848424983542081 0 0 0
275 1 1.8992297295053135 6.511292225108652 6.619575356493598 0 0 0
276 1 4.614800912197515 6.511292225108647 6.619575356493621 0 0 0
277 1 3.709610517966774 5.232573481473646 4.3907634558678765 0 0 0
278 1 6.425181700658957 5.232573481473652 4.390763455867887 0 0 0
279 1 5.519991306428223 3.9538547378386313 2.1642338590138674 0 0 0
280 1 8.235562489120444 3.9538547378386295 2.164233859013873 0 0 0
281 1 7.330372094889695 2.675135994203622 0.00537233189698575 0 0 0
282 1 10.045943277581904 2.675135994203621 0.005372331897002193 0 0 0
283 1 0.9940393352745591 12.90488594328369 13.306051697654894 0 0 0
1881 1 17.287466431427728 28.249510866903755 26.67959988778972 0 0 0
285 1 2.8044201237360316 11.62616719964869 11.077217215710501 0 0 0
286 1 1.8992297295052938 10.347448456013677 8.848424983542115 0 0 0
287 1 4.6148009121974916 10.347448456013684 8.84842498354207 0 0 0
288 1 3.709610517966768 9.068729712378667 6.619575356493621 0 0 0
289 1 6.425181700658965 9.068729712378675 6.619575356493631 0 0 0
290 1 5.519991306428237 7.790010968743665 4.3907634558678765 0 0 0
291 1 8.235562489120417 7.790010968743659 4.39076345586786 0 0 0
292 1 7.330372094889691 6.511292225108669 2.164233859013873 0 0 0
293 1 10.045943277581891 6.511292225108674 2.164233859013873 0 0 0
294 1 9.140752883351162 5.232573481473644 0.00537233189698571 0 0 0
295 1 11.856324066043356 5.232573481473656 0.005372331896974812 0 0 0
296 1 0.9940393352745808 16.74104217418869 15.534899349905725 0 0 0
1880 1 14.571895248735565 28.24951086690375 26.67959988778972 0 0 0
298 1 2.8044201237360387 15.462323430553685 13.306051697654883 0 0 0
299 1 1.8992297295052953 14.183604686918677 11.077217215710467 0 0 0
300 1 4.614800912197504 14.18360468691867 11.077217215710501 0 0 0
301 1 3.7096105179667664 12.90488594328367 8.848424983542087 0 0 0
302 1 6.425181700658953 12.904885943283688 8.84842498354207 0 0 0
303 1 5.519991306428229 11.626167199648682 6.619575356493609 0 0 0
304 1 8.23556248912043 11.626167199648664 6.619575356493609 0 0 0
305 1 7.330372094889696 10.347448456013668 4.3907634558678765 0 0 0
306 1 10.045943277581896 10.347448456013678 4.39076345586786 0 0 0
307 1 9.14075288335116 9.068729712378666 2.164233859013873 0 0 0
308 1 11.856324066043355 9.06872971237867 2.1642338590138865 0 0 0
309 1 10.951133671812618 7.790010968743662 0.005372331896974894 0 0 0
310 1 13.666704854504816 7.790010968743664 0.0053723318969749155 0 0 0
311 1 0.9940393352745753 20.577198405093718 17.763827426223187 0 0 0
7361 1 32.67570313335018 11.626167199648688 6.619575356493598 0 0 0
313 1 2.8044201237360453 19.298479661458703 15.534899349905691 0 0 0
314 1 1.8992297295053184 18.019760917823692 13.306051697654883 0 0 0
315 1 4.6148009121974995 18.019760917823692 13.306051697654878 0 0 0
316 1 3.7096105179667767 16.741042174188713 11.077217215710457 0 0 0
317 1 6.425181700658964 16.741042174188703 11.077217215710476 0 0 0
318 1 5.519991306428229 15.462323430553676 8.848424983542115 0 0 0
319 1 8.23556248912044 15.462323430553694 8.848424983542081 0 0 0
320 1 7.330372094889689 14.183604686918681 6.619575356493609 0 0 0
321 1 10.045943277581886 14.183604686918681 6.619575356493598 0 0 0
322 1 9.140752883351153 12.904885943283675 4.39076345586786 0 0 0
323 1 11.856324066043342 12.904885943283686 4.3907634558678765 0 0 0
324 1 10.951133671812613 11.62616719964868 2.164233859013884 0 0 0
325 1 13.666704854504822 11.626167199648659 2.1642338590138785 0 0 0
326 1 12.761514460274087 10.347448456013673 0.005372331896969404 0 0 0
327 1 15.477085642966271 10.347448456013668 0.005372331896980263 0 0 0
328 1 0.9940393352745833 24.413354635998704 19.99273342279158 0 0 0
7354 1 32.675703133350176 7.790010968743656 4.390763455867877 0 0 0
330 1 2.804420123736035 23.134635892363736 17.76382742622323 0 0 0
331 1 1.8992297295052873 21.85591714872871 15.534899349905752 0 0 0
332 1 4.614800912197501 21.85591714872871 15.53489934990568 0 0 0
333 1 3.709610517966777 20.577198405093686 13.306051697654883 0 0 0
334 1 6.425181700658952 20.577198405093696 13.3060516976549 0 0 0
335 1 5.519991306428225 19.29847966145869 11.077217215710473 0 0 0
336 1 8.235562489120442 19.298479661458693 11.077217215710473 0 0 0
337 1 7.330372094889697 18.01976091782368 8.848424983542102 0 0 0
338 1 10.045943277581893 18.01976091782369 8.848424983542087 0 0 0
339 1 9.140752883351157 16.74104217418869 6.619575356493598 0 0 0
340 1 11.856324066043365 16.74104217418868 6.619575356493609 0 0 0
341 1 10.951133671812627 15.462323430553674 4.3907634558678765 0 0 0
342 1 13.666704854504824 15.462323430553687 4.39076345586786 0 0 0
343 1 12.761514460274073 14.18360468691868 2.1642338590138674 0 0 0
344 1 15.47708564296629 14.18360468691867 2.1642338590138785 0 0 0
345 1 14.571895248735544 12.904885943283672 0.005372331896969443 0 0 0
346 1 17.28746643142774 12.904885943283672 0.005372331896974846 0 0 0
347 1 0.9940393352745643 28.249510866903744 22.22166748142012 0 0 0
6032 1 16.382276037197023 30.806948354173755 26.679599887789728 0 0 0
349 1 2.8044201237360373 26.97079212326872 19.992733422791627 0 0 0
350 1 1.8992297295053155 25.692073379633733 17.76382742622324 0 0 0
351 1 4.614800912197497 25.692073379633708 17.76382742622319 0 0 0
352 1 3.7096105179667718 24.413354635998733 15.534899349905702 0 0 0
353 1 6.425181700658953 24.41335463599875 15.534899349905702 0 0 0
354 1 5.5199913064282295 23.134635892363722 13.306051697654883 0 0 0
355 1 8.235562489120431 23.134635892363733 13.306051697654915 0 0 0
356 1 7.330372094889698 21.855917148728743 11.077217215710455 0 0 0
357 1 10.0459432775819 21.85591714872873 11.07721721571044 0 0 0
358 1 9.140752883351162 20.57719840509372 8.848424983542081 0 0 0
359 1 11.856324066043358 20.577198405093718 8.848424983542081 0 0 0
360 1 10.951133671812624 19.298479661458714 6.619575356493577 0 0 0
361 1 13.666704854504824 19.298479661458703 6.619575356493598 0 0 0
362 1 12.761514460274105 18.019760917823703 4.390763455867877 0 0 0
363 1 15.477085642966262 18.019760917823703 4.39076345586786 0 0 0
364 1 14.571895248735547 16.74104217418869 2.164233859013873 0 0 0
365 1 17.28746643142774 16.74104217418868 2.164233859013857 0 0 0
366 1 16.382276037197027 15.462323430553672 0.005372331896996622 0 0 0
367 1 19.097847219889207 15.46232343055367 0.005372331896969487 0 0 0
368 1 2.8044201237360458 30.80694835417375 22.22166748142013 0 0 0
369 1 1.899229729505297 29.528229610538737 19.992733422791556 0 0 0
370 1 4.614800912197507 29.528229610538762 19.9927334227916 0 0 0
371 1 3.709610517966769 28.249510866903737 17.763827426223216 0 0 0
372 1 6.4251817006589516 28.24951086690378 17.763827426223187 0 0 0
373 1 5.519991306428218 26.970792123268744 15.534899349905736 0 0 0
374 1 8.235562489120433 26.970792123268726 15.534899349905707 0 0 0
375 1 7.330372094889704 25.69207337963373 13.3060516976549 0 0 0
376 1 10.045943277581893 25.692073379633715 13.3060516976549 0 0 0
377 1 9.140752883351146 24.413354635998726 11.077217215710489 0 0 0
378 1 11.856324066043365 24.41335463599871 11.077217215710457 0 0 0
379 1 10.951133671812649 23.134635892363697 8.848424983542087 0 0 0
380 1 13.666704854504815 23.13463589236372 8.848424983542092 0 0 0
381 1 12.761514460274073 21.855917148728718 6.619575356493609 0 0 0
382 1 15.477085642966292 21.85591714872872 6.619575356493621 0 0 0
383 1 14.571895248735537 20.577198405093696 4.39076345586786 0 0 0
384 1 17.287466431427735 20.57719840509371 4.390763455867866 0 0 0
385 1 16.382276037196984 19.298479661458707 2.164233859013857 0 0 0
386 1 19.097847219889218 19.298479661458707 2.1642338590138763 0 0 0
387 1 18.192656825658467 18.019760917823657 0.005372331896966673 0 0 0
388 1 20.908228008350655 18.01976091782368 0.005372331896955873 0 0 0
389 1 8.235562489120422 30.806948354173745 17.763827426223187 0 0 0
390 1 7.330372094889696 29.52822961053874 15.53489934990573 0 0 0
391 1 10.045943277581893 29.528229610538737 15.534899349905736 0 0 0
392 1 9.140752883351167 28.249510866903723 13.306051697654905 0 0 0
393 1 11.856324066043355 28.24951086690374 13.306051697654878 0 0 0
394 1 10.95113367181262 26.970792123268748 11.077217215710473 0 0 0
395 1 13.666704854504832 26.970792123268744 11.077217215710467 0 0 0
396 1 12.761514460274094 25.692073379633733 8.848424983542081 0 0 0
397 1 15.477085642966268 25.692073379633733 8.848424983542081 0 0 0
398 1 14.571895248735553 24.413354635998726 6.619575356493582 0 0 0
399 1 17.287466431427752 24.413354635998715 6.619575356493582 0 0 0
400 1 16.382276037197034 23.13463589236373 4.390763455867877 0 0 0
401 1 19.097847219889182 23.13463589236374 4.390763455867854 0 0 0
402 1 18.192656825658467 21.855917148728714 2.164233859013857 0 0 0
403 1 20.90822800835067 21.85591714872869 2.164233859013843 0 0 0
404 1 20.00303761411995 20.577198405093718 0.005372331896966753 0 0 0
405 1 22.718608796812134 20.577198405093707 0.0053723318969694815 0 0 0
406 1 13.666704854504825 30.806948354173755 13.3060516976549 0 0 0
407 1 12.76151446027409 29.52822961053874 11.077217215710478 0 0 0
408 1 15.477085642966276 29.528229610538737 11.077217215710467 0 0 0
409 1 14.571895248735553 28.24951086690373 8.848424983542065 0 0 0
410 1 17.287466431427738 28.249510866903744 8.848424983542087 0 0 0
411 1 16.382276037197 26.970792123268744 6.619575356493609 0 0 0
412 1 19.09784721988921 26.970792123268744 6.619575356493609 0 0 0
413 1 18.192656825658485 25.692073379633733 4.39076345586786 0 0 0
414 1 20.90822800835066 25.69207337963373 4.390763455867838 0 0 0
415 1 20.003037614119922 24.413354635998733 2.164233859013862 0 0 0
416 1 22.718608796812138 24.413354635998726 2.1642338590138572 0 0 0
417 1 21.813418402581366 23.134635892363722 0.0053723318969612875 0 0 0
418 1 24.52898958527358 23.13463589236372 0.005372331896966638 0 0 0
419 1 19.09784721988921 30.806948354173716 8.84842498354207 0 0 0
420 1 18.192656825658467 29.52822961053874 6.619575356493582 0 0 0
421 1 20.90822800835066 29.52822961053874 6.619575356493582 0 0 0
422 1 20.00303761411994 28.249510866903737 4.39076345586786 0 0 0
423 1 22.718608796812152 28.249510866903744 4.390763455867855 0 0 0
424 1 21.813418402581384 26.97079212326872 2.1642338590138377 0 0 0
425 1 24.52898958527361 26.970792123268737 2.164233859013857 0 0 0
426 1 23.623799191042856 25.692073379633733 0.00537233189696668 0 0 0
427 1 26.33937037373506 25.692073379633726 0.005372331896961275 0 0 0
428 1 24.52898958527359 30.806948354173738 4.390763455867849 0 0 0
429 1 23.623799191042863 29.52822961053875 2.164233859013846 0 0 0
430 1 26.339370373735044 29.528229610538734 2.1642338590138377 0 0 0
431 1 25.434179979504336 28.24951086690373 0.00537233189693412 0 0 0
432 1 28.14975116219652 28.24951086690374 0.005372331896950402 0 0 0
433 1 0.9940393352745736 1.3964172505686294 11.077217215710457 0 0 0
6033 1 19.09784721988919 30.806948354173755 26.679599887789742 0 0 0
5314 1 21.81341840258141 30.806948354173752 22.22166748142013 0 0 0
436 1 0.994039335274566 5.232573481473647 13.306051697654905 0 0 0
7349 1 32.67570313335017 3.9538547378386246 2.164233859013873 0 0 0
438 1 2.8044201237360475 3.9538547378386295 11.077217215710478 0 0 0