LAMMPS data file via write_data, version 2 Aug 2023, timestep = 50613, units = metal

8400 atoms
3 atom types

0.07951741895199792 54.37999293521493 xlo xhi
0.10793428315011441 51.23698447889089 ylo yhi
-22.32890306774744 66.79490707492613 zlo zhi

Masses

1 183.84
2 1.008
3 4.0026

Atoms # atomic

1 1 0.6557875413684853 43.56769178165729 0.004920075779738636 0 0 0
2 1 0.587971310327689 47.40236961962987 2.164932232560377 0 0 0
800 1 25.83778218968727 1.3860647663828385 6.622856105500609 0 0 0
4 1 2.4205506882133996 46.12416640676024 0.004900850945994271 0 0 0
4253 1 26.9238506966026 42.28955539011476 6.622700146603793 0 0 0
6 1 2.3527979503776018 49.95878238776156 2.165039237028341 0 0 0
7 1 1.4703570012445588 48.68062204115783 0.005005649838516846 0 0 0
8 1 4.18538077704765 48.68062204115473 0.005005649838487231 0 0 0
9 1 0.7917436519185126 35.898393024040146 0.005047685711259272 0 0 0
10 1 0.7238441234825685 39.73303922508963 2.165016366714974 0 0 0
4214 1 26.923727127781827 42.28951092895361 2.1649406841696486 0 0 0
12 1 2.556505649407332 38.45480526814602 0.005073043939203119 0 0 0
13 1 0.6559298926527172 43.567757798584985 4.392629024521066 0 0 0
4225 1 26.788092641426253 49.958724245054846 6.622842955594883 0 0 0
15 1 2.4885131454700775 42.28951092896095 2.164940684155261 0 0 0
16 1 1.6061491650965112 41.01121724943564 0.005011557034774501 0 0 0
17 1 4.321172940900817 41.011217249432235 0.0050115570426058145 0 0 0
18 1 0.5880974321857725 47.40233841044396 6.622780511365864 0 0 0
799 1 25.701876464519785 9.055416937809726 6.622725315527146 0 0 0
20 1 2.4206524735307107 46.124149174729034 4.392650192710807 0 0 0
21 1 1.538197887331379 44.84594162308974 2.1648837615643313 0 0 0
22 1 4.253221663133837 44.84594162309125 2.164883761568858 0 0 0
23 1 3.370811317173807 43.567691781655014 0.004920075785892952 0 0 0
24 1 6.085835092979278 43.56769178165162 0.004920075793031678 0 0 0
798 1 25.769899858626953 5.22077446696123 4.392779752335889 0 0 0
26 1 2.352878659119491 49.9587242450461 6.6228429555876245 0 0 0
27 1 1.4704314078365048 48.6805598401364 4.392720712069525 0 0 0
28 1 4.185455183636035 48.68055984014191 4.392720712069708 0 0 0
29 1 3.3029950861294166 47.40236961963093 2.164932232560763 0 0 0
30 1 6.018018861933007 47.40236961963103 2.1649322325642903 0 0 0
31 1 5.135574464018399 46.12416640675596 0.004900850949516721 0 0 0
32 1 7.850598239826765 46.12416640675182 0.004900850954721309 0 0 0
33 1 5.067821726179806 49.95878238776281 2.1650392370269564 0 0 0
34 1 7.782845501984647 49.958782387763364 2.1650392370257343 0 0 0
35 1 6.900404552854433 48.68062204115127 0.005005649839209502 0 0 0
36 1 9.615428328663056 48.68062204114758 0.005005649841341947 0 0 0
37 1 0.9274678945260637 28.228985770624018 0.004787919482104882 0 0 0
38 1 0.8595994004679333 32.06368969046221 2.164899178634679 0 0 0
4219 1 26.85586645586801 46.12414917474789 4.392650192732867 0 0 0
40 1 2.6922500268162177 30.785500952683357 0.004884617192279841 0 0 0
41 1 0.7917611097418187 35.898375037149655 4.392744794789384 0 0 0
4203 1 26.855764670548485 46.12416640674494 0.004900850974713513 0 0 0
43 1 2.6243958957365603 34.62015002171311 2.1649971842783393 0 0 0
44 1 1.74200239562045 33.34196699383578 0.004978877959653801 0 0 0
45 1 4.457026171418086 33.34196699382935 0.00497887796455143 0 0 0
46 1 0.7238927726310871 39.73310371279229 6.622729238317874 0 0 0
797 1 26.65221870550038 6.498935090210885 6.622790218249276 0 0 0
48 1 2.556530698474709 38.45485074596753 4.392752367664577 0 0 0
49 1 1.6741494495685134 37.17660602730785 2.1650450032457473 0 0 0
50 1 4.389173225372608 37.17660602730288 2.165045003249512 0 0 0
51 1 3.5067674277193044 35.89839302403518 0.005047685716453856 0 0 0
52 1 6.221791203522678 35.898393024026994 0.00504768571962505 0 0 0
796 1 23.937194929675584 6.498935090217078 6.622790218252096 0 0 0
54 1 2.4886367142389725 42.28955539007852 6.622700146580586 0 0 0
55 1 1.6062414195921548 41.011302983298286 4.392691794622823 0 0 0
56 1 4.321265195395188 41.01130298329876 4.392691794623871 0 0 0
57 1 3.4388678992860227 39.73303922508651 2.165016366721034 0 0 0
58 1 6.15389167509227 39.733039225082855 2.1650163667254714 0 0 0
59 1 5.271529425209684 38.45480526814125 0.00507304394577291 0 0 0
60 1 7.986553201013981 38.454805268134336 0.005073043950729913 0 0 0
61 1 1.5383622137217723 44.84596757793786 6.622710050543115 0 0 0
62 1 4.253385989523411 44.845967577943085 6.6227100505413246 0 0 0
63 1 3.370953668454569 43.56775779858878 4.39262902452118 0 0 0
64 1 6.085977444259358 43.567757798593014 4.392629024523659 0 0 0
65 1 5.203536921274873 42.289510928960944 2.164940684161034 0 0 0
66 1 7.918560697080546 42.28951092895887 2.1649406841667633 0 0 0
67 1 7.036196716705119 41.01121724942801 0.005011557050041304 0 0 0
68 1 9.751220492508892 41.01121724942363 0.005011557055448692 0 0 0
69 1 3.3031212079843617 47.40233841044914 6.622780511366294 0 0 0
70 1 6.0181449837848415 47.40233841045537 6.622780511367244 0 0 0
71 1 5.135676249332199 46.124149174733965 4.392650192712039 0 0 0
72 1 7.8507000251352705 46.1241491747382 4.392650192714988 0 0 0
73 1 6.9682454389396415 44.84594162309204 2.164883761574389 0 0 0
74 1 9.68326921474837 44.84594162309253 2.1648837615801475 0 0 0
75 1 8.800858868785946 43.567691781648705 0.004920075800427758 0 0 0
76 1 11.51588264459414 43.56769178164641 0.004920075807700234 0 0 0
77 1 5.067902434918748 49.95872424505278 6.622842955589599 0 0 0
78 1 7.782926210718742 49.95872424505883 6.622842955590846 0 0 0
79 1 6.900478959437877 48.68055984014771 4.392720712070905 0 0 0
80 1 9.615502735242035 48.680559840153244 4.392720712072053 0 0 0
81 1 8.733042637740246 47.40236961963191 2.1649322325665903 0 0 0
82 1 11.448066413550773 47.40236961963195 2.164932232571404 0 0 0
83 1 10.565622015636817 46.124166406748394 0.004900850961513907 0 0 0
84 1 13.280645791450443 46.124166406746625 0.004900850967841534 0 0 0
85 1 10.497869277791917 49.95878238776508 2.1650392370242852 0 0 0
86 1 13.212893053603231 49.95878238776819 2.1650392370243297 0 0 0
87 1 12.330452104476404 48.680622041145654 0.005005649844384366 0 0 0
88 1 15.045475880292486 48.680622041144986 0.0050056498463386554 0 0 0
89 1 1.063179330296454 20.559503410728826 0.004881722355109611 0 0 0
90 1 0.9953692262107847 24.394230056066075 2.1647773057011874 0 0 0
91 1 0.11298200054836255 23.115981119455274 0.00481765714568699 0 0 0
92 1 2.8280057763551247 23.115981119460386 0.004817657144193098 0 0 0
93 1 0.9274280198162348 28.228889397712354 4.39246551861045 0 0 0
795 1 25.837802057819783 1.3861646270447376 2.165080337875387 0 0 0
95 1 2.760105291381354 26.950705760069898 2.16474773984221 0 0 0
96 1 1.877738959878885 25.67247915653307 0.004768836510663858 0 0 0
97 1 4.592762735687583 25.672479156535942 0.004768836522744971 0 0 0
98 1 0.859571481489421 32.063580772239014 6.622586170251505 0 0 0
794 1 26.720163434536115 2.664339002679784 4.392803853843191 0 0 0
100 1 2.692196298523358 30.78538180803858 4.392522481805825 0 0 0
101 1 1.809828015964177 29.507178614901303 2.1648011926665816 0 0 0
102 1 4.524851791763463 29.507178614898272 2.164801192678826 0 0 0
103 1 3.6424916703270247 28.22898577062369 0.004787919496946415 0 0 0
104 1 6.357515446132754 28.228985770620437 0.004787919512851672 0 0 0
793 1 24.005139658709552 2.6643390026851392 4.392803853842527 0 0 0
106 1 2.624378683470921 34.620100336209255 6.622688803638897 0 0 0
107 1 1.74198389149483 33.34188823503364 4.3926375669021684 0 0 0
108 1 4.457007667299397 33.34188823502849 4.392637566901565 0 0 0
109 1 3.574623176266667 32.0636896904578 2.164899178639711 0 0 0
110 1 6.289646952069197 32.06368969045031 2.1648991786458556 0 0 0
111 1 5.407273802617221 30.785500952676596 0.004884617202975701 0 0 0
112 1 8.122297578421259 30.785500952667956 0.0048846172142011784 0 0 0
113 1 1.6741531759429802 37.17660016896791 6.622766878658597 0 0 0
114 1 4.3891769517537 37.17660016896647 6.622766878651567 0 0 0
115 1 3.506784885547877 35.89837503714405 4.392744794788474 0 0 0
116 1 6.221808661356733 35.89837503713923 4.392744794786139 0 0 0
117 1 5.339419671539681 34.6201500217063 2.164997184281501 0 0 0
118 1 8.054443447345458 34.620150021698734 2.164997184283786 0 0 0
119 1 7.172049947221469 33.3419669938195 0.004978877969568085 0 0 0
120 1 9.88707372302647 33.34196699380649 0.004978877976835473 0 0 0
121 1 3.4389165484368456 39.73310371279234 6.6227292383105825 0 0 0
122 1 6.153940324243977 39.73310371279364 6.622729238305408 0 0 0
123 1 5.271554474281016 38.454850745964166 4.392752367664107 0 0 0
124 1 7.98657825008997 38.454850745962105 4.392752367662424 0 0 0
125 1 7.104197001179159 37.17660602729584 2.1650450032527475 0 0 0
126 1 9.819220776985578 37.17660602728877 2.165045003253361 0 0 0
127 1 8.936814979326451 35.898393024017764 0.005047685724082409 0 0 0
128 1 11.651838755132042 35.89839302400813 0.005047685728460691 0 0 0
129 1 5.203660490043891 42.289555390082306 6.622700146575025 0 0 0
130 1 7.918684265851236 42.28955539008661 6.6227001465723925 0 0 0
131 1 7.036288971203329 41.01130298330025 4.392691794623456 0 0 0
132 1 9.751312747011038 41.01130298330076 4.3926917946231585 0 0 0
133 1 8.868915450896807 39.73303922507882 2.165016366728598 0 0 0
134 1 11.583939226703473 39.73303922507567 2.1650163667305873 0 0 0
135 1 10.701576976817343 38.45480526812586 0.005073043954648246 0 0 0
136 1 13.416600752620457 38.45480526811922 0.005073043957191174 0 0 0
137 1 6.968409765326666 44.845967577948 6.622710050540463 0 0 0
138 1 9.68343354113412 44.84596757795321 6.622710050541908 0 0 0
139 1 8.801001220066624 43.56775779859632 4.39262902452639 0 0 0
140 1 11.516024995878455 43.56775779860038 4.39262902452923 0 0 0
141 1 10.633584472889115 42.289510928958435 2.1649406841714924 0 0 0
142 1 13.348608248698886 42.289510928958066 2.1649406841754355 0 0 0
143 1 12.466244268313057 41.011217249420454 0.005011557059530049 0 0 0
144 1 15.181268044118369 41.011217249417534 0.005011557060786914 0 0 0
145 1 8.733168759587048 47.4023384104616 6.6227805113701725 0 0 0
146 1 11.4481925353925 47.40233841046654 6.622780511372998 0 0 0
147 1 10.56572380094371 46.124149174742584 4.39265019271847 0 0 0
148 1 13.280747576755436 46.12414917474711 4.39265019272221 0 0 0
149 1 12.398292990559817 44.84594162309258 2.1648837615862226 0 0 0
150 1 15.11331676637552 44.845941623093225 2.164883761590388 0 0 0
151 1 14.230906420403667 43.56769178164537 0.004920075812167747 0 0 0
152 1 16.945930196215397 43.56769178164412 0.004920075814280345 0 0 0
153 1 10.497949986521542 49.958724245063884 6.622842955592478 0 0 0
154 1 13.21297376232845 49.958724245067245 6.622842955594121 0 0 0
155 1 12.330526511051005 48.680559840157606 4.39272071207319 0 0 0
156 1 15.045550286863945 48.680559840161216 4.392720712074274 0 0 0
157 1 14.163090189365496 47.402369619632594 2.1649322325745657 0 0 0
158 1 16.878113965183896 47.40236961963346 2.1649322325765197 0 0 0
159 1 15.995669567265798 46.12416640674578 0.004900850971873644 0 0 0
160 1 18.710693343084575 46.124166406744195 0.004900850973714062 0 0 0
161 1 15.927916829419345 49.9587823877702 2.165039237023291 0 0 0
162 1 18.64294060523775 49.95878238777158 2.1650392370215643 0 0 0
163 1 17.76049965611158 48.68062204114546 0.005005649847451901 0 0 0
164 1 20.47552343193365 48.68062204114483 0.00500564984751137 0 0 0
165 1 1.1988544733306699 12.89012521121718 0.004931703066220423 0 0 0
166 1 1.1309894117803072 16.724829247071764 2.164927834446227 0 0 0
167 1 0.2485962853423897 15.446568739664874 0.004948968586327768 0 0 0
168 1 2.9636200611458166 15.446568739661444 0.004948968584645736 0 0 0
169 1 1.0632477619488803 20.559536125829062 4.392586339981561 0 0 0
170 1 0.18076995615380217 19.281293636140838 2.1648839303053244 0 0 0
171 1 2.8957937319515192 19.281293636138518 2.1648839302980774 0 0 0
172 1 2.0133801212218776 18.003038847166483 0.0049448643800079 0 0 0
173 1 4.728403897023057 18.003038847165794 0.0049448643768069895 0 0 0
174 1 0.995412729626773 24.394207926654186 6.622608389518327 0 0 0
175 1 0.11300176302781337 23.11599645650382 4.392537176784375 0 0 0
176 1 2.828025538821394 23.11599645649792 4.392537176783133 0 0 0
177 1 1.9456007017948622 21.83778431769258 2.164824945814446 0 0 0
178 1 4.660624477594227 21.83778431769103 2.1648249458118243 0 0 0
179 1 3.7782031060993484 20.559503410731157 0.004881722348129136 0 0 0
180 1 6.493226881901196 20.559503410732606 0.004881722346580811 0 0 0
792 1 24.88748774881912 3.9425001613717954 6.622832772193904 0 0 0
182 1 2.7601118030322973 26.950642237020272 6.62256580747579 0 0 0
183 1 1.8777350999346578 25.672438205115274 4.392503671155671 0 0 0
184 1 4.592758875732495 25.672438205110083 4.392503671162854 0 0 0
185 1 3.7103930020127196 24.394230056064384 2.164777305704769 0 0 0
186 1 6.4254167778172455 24.39423005606209 2.16477730571262 0 0 0
187 1 5.543029552163475 23.115981119465037 0.004817657147670998 0 0 0
188 1 8.258053327973178 23.115981119469026 0.004817657155997113 0 0 0
189 1 1.8098012250551414 29.507099526271254 6.62252639625302 0 0 0
190 1 4.524825000856158 29.50709952626791 6.622526396254421 0 0 0
191 1 3.6424517956123226 28.22888939770831 4.392465518618296 0 0 0
192 1 6.357475571414699 28.228889397704155 4.3924655186271275 0 0 0
193 1 5.475129067184052 26.950705760066185 2.1647477398550232 0 0 0
194 1 8.190152842990994 26.950705760063165 2.1647477398699193 0 0 0
195 1 7.307786511496732 25.672479156536095 0.004768836537789305 0 0 0
196 1 10.022810287310309 25.672479156534425 0.004768836552794304 0 0 0
197 1 3.5745952572954622 32.06358077223571 6.6225861702485265 0 0 0
198 1 6.289619033105601 32.063580772232456 6.6225861702466515 0 0 0
199 1 5.407220074326518 30.785381808034394 4.392522481810337 0 0 0
200 1 8.12224385013427 30.78538180803044 4.392522481816185 0 0 0
201 1 7.239875567567891 29.507178614894652 2.164801192689883 0 0 0
202 1 9.954899343377575 29.507178614889707 2.164801192703073 0 0 0
203 1 9.072539221940955 28.22898577061508 0.004787919529093243 0 0 0
204 1 11.787562997755408 28.228985770608706 0.0047879195442910505 0 0 0
205 1 5.339402459283565 34.62010033620616 6.622688803633559 0 0 0
206 1 8.054426235098633 34.62010033620497 6.622688803628884 0 0 0
207 1 7.172031443108783 33.34188823502269 4.392637566902352 0 0 0
208 1 9.887055218921661 33.34188823501791 4.392637566903618 0 0 0
209 1 9.004670727876196 32.063689690442864 2.1648991786518166 0 0 0
210 1 11.719694503688139 32.06368969043562 2.16489917865857 0 0 0
211 1 10.83732135423158 30.785500952659298 0.004884617225184075 0 0 0
212 1 13.552345130045092 30.785500952650874 0.004884617234663106 0 0 0
213 1 7.104200727565916 37.17660016896676 6.622766878645966 0 0 0
214 1 9.819224503378758 37.176600168968534 6.622766878639678 0 0 0
215 1 8.936832437167295 35.89837503713569 4.392744794785515 0 0 0
216 1 11.651856212981158 35.89837503713479 4.392744794785727 0 0 0
217 1 10.769467223154063 34.62015002169067 2.1649971842888425 0 0 0
218 1 13.484490998965848 34.62015002168573 2.164997184293463 0 0 0
219 1 12.60209749883607 33.34196699379517 0.004978877983662607 0 0 0
220 1 15.317121274647894 33.341966993788404 0.004978877989530086 0 0 0
221 1 8.868964100053681 39.73310371279623 6.622729238299798 0 0 0
222 1 11.583987875866685 39.733103712801274 6.622729238296597 0 0 0
223 1 10.701602025900032 38.45485074596136 4.392752367661712 0 0 0
224 1 13.416625801711831 38.45485074596312 4.392752367661529 0 0 0
225 1 12.534244552793124 37.1766060272829 2.1650450032562305 0 0 0
226 1 15.249268328601994 37.176606027279924 2.165045003258887 0 0 0
227 1 14.366862530938558 35.89839302399904 0.005047685733224953 0 0 0
228 1 17.081886306745798 35.8983930239932 0.0050476857371035315 0 0 0
229 1 10.633708041662969 42.289555390091884 6.622700146571591 0 0 0
230 1 13.348731817479274 42.28955539009755 6.622700146572496 0 0 0
231 1 12.466336522824273 41.01130298330382 4.392691794623515 0 0 0
232 1 15.181360298639836 41.01130298330734 4.392691794625098 0 0 0
233 1 14.298963002511433 39.73303922507442 2.165016366732408 0 0 0
234 1 17.01398677831977 39.73303922507425 2.1650163667326603 0 0 0
235 1 16.1316245284248 38.454805268114775 0.005073043959427361 0 0 0
236 1 18.846648304230055 38.4548052681119 0.0050730439595364826 0 0 0
237 1 12.398457316945006 44.84596757795871 6.622710050544312 0 0 0
238 1 15.113481092761267 44.84596757796367 6.622710050547854 0 0 0
239 1 14.231048771694544 43.56775779860357 4.3926290245329405 0 0 0
240 1 16.94607254751318 43.567757798607204 4.3926290245360375 0 0 0
241 1 16.06363202451152 42.28951092895765 2.1649406841774645 0 0 0
242 1 18.778655800325595 42.2895109289574 2.164940684177405 0 0 0
243 1 17.896291819924652 41.01121724941478 0.005011557060163872 0 0 0
244 1 20.611315595734077 41.011217249412816 0.005011557057848865 0 0 0
245 1 14.163216311201934 47.4023384104711 6.622780511376584 0 0 0
246 1 16.878240087015673 47.40233841047427 6.622780511380245 0 0 0
247 1 15.995771352572417 46.12414917474944 4.392650192725249 0 0 0
248 1 18.710795128392434 46.124149174751416 4.392650192727489 0 0 0
249 1 17.828340542193423 44.84594162309278 2.164883761593208 0 0 0
250 1 20.543364318013545 44.84594162309141 2.1648837615934458 0 0 0
251 1 19.66095397202985 43.56769178164322 0.004920075813820538 0 0 0
252 1 22.375977747845777 43.567691781641436 0.0049200758130686665 0 0 0
253 1 15.927997538138834 49.95872424506813 6.622842955594853 0 0 0
254 1 18.643021313954847 49.958724245067756 6.62284295559608 0 0 0
255 1 17.76057406268127 48.68055984016266 4.392720712074397 0 0 0
256 1 20.47559783850183 48.680559840161585 4.392720712074526 0 0 0
257 1 19.593137741004867 47.40236961963262 2.1649322325771876 0 0 0
258 1 22.30816151682803 47.40236961963158 2.1649322325768563 0 0 0
259 1 21.425717118904842 46.1241664067436 0.004900850974194234 0 0 0
260 1 24.140740894726417 46.12416640674374 0.004900850975054826 0 0 0
261 1 21.357964381059205 49.95878238777048 2.1650392370211735 0 0 0
262 1 24.072988156883877 49.95878238776901 2.1650392370212233 0 0 0
263 1 23.1905472077573 48.68062204114441 0.005005649847996347 0 0 0
264 1 25.905570983581725 48.6806220411458 0.005005649848644432 0 0 0
265 1 1.3347269695085802 5.220796016695608 0.00506400808464525 0 0 0
266 1 1.2667428826851688 9.055456341821584 2.1649629436901248 0 0 0
267 1 0.38437665551933753 7.777237016408772 0.005022370804435275 0 0 0
268 1 3.0994004313262655 7.777237016408413 0.005022370797024457 0 0 0
269 1 1.1988226613213133 12.890123074372367 4.392622275074797 0 0 0
270 1 0.31645724604590086 11.611895899793796 2.1649305516593693 0 0 0
271 1 3.0314810218542663 11.61189589978979 2.1649305516572817 0 0 0
272 1 2.149115204667063 10.33365735820291 0.004943767878841605 0 0 0
273 1 4.8641389804797965 10.333657358204993 0.004943767873573077 0 0 0
274 1 1.1310733321945667 16.724836238737105 6.622672378681542 0 0 0
275 1 0.24861851553420436 15.446586989897073 4.392635753442664 0 0 0
276 1 2.963642291337861 15.446586989891465 4.392635753442956 0 0 0
277 1 2.081238228149182 14.168337324433196 2.1649190071150417 0 0 0
278 1 4.7962620039559125 14.168337324428741 2.1649190071166937 0 0 0
279 1 3.9138782491421003 12.890125211216027 0.004931703064775855 0 0 0
280 1 6.628902024954283 12.89012521121801 0.004931703066715176 0 0 0
281 1 0.18092178025099118 19.28131801342137 6.622664816461062 0 0 0
282 1 2.8959455560469958 19.28131801341501 6.622664816458667 0 0 0
283 1 2.013445590855646 18.003069028990122 4.392619980574054 0 0 0
284 1 4.728469366652366 18.003069028984243 4.392619980571516 0 0 0
285 1 3.8460131875794286 16.72482924706801 2.1649278344452028 0 0 0
286 1 6.561036963379647 16.724829247066875 2.164927834446989 0 0 0
287 1 5.678643836951647 15.446568739660409 0.004948968587173467 0 0 0
288 1 8.39366761276035 15.446568739664352 0.004948968592471983 0 0 0
289 1 1.945710618904169 21.8377729792798 6.6226244972076405 0 0 0
290 1 4.660734394695783 21.83777297927235 6.6226244972044155 0 0 0
291 1 3.7782715377433944 20.559536125823655 4.392586339976687 0 0 0
292 1 6.493295313537261 20.559536125817413 4.392586339974476 0 0 0
293 1 5.610817507748839 19.281293636136954 2.16488393029543 0 0 0
294 1 8.325841283547966 19.281293636136144 2.164883930296712 0 0 0
295 1 7.44342767282494 18.00303884716822 0.00494486437861284 0 0 0
296 1 10.158451448628917 18.003038847173762 0.004944864385069184 0 0 0
297 1 3.7104365054193766 24.394207926648043 6.622608389518318 0 0 0
298 1 6.4254602812137245 24.394207926642654 6.622608389517428 0 0 0
299 1 5.543049314618316 23.11599645649207 4.392537176783687 0 0 0
300 1 8.258073090416573 23.115996456487867 4.392537176786076 0 0 0
301 1 7.37564825339488 21.837784317690097 2.164824945815644 0 0 0
302 1 10.090672029198709 21.83778431768893 2.1648249458217683 0 0 0
303 1 9.208250657707529 20.559503410735104 0.004881722350706916 0 0 0
304 1 11.923274433514514 20.55950341073972 0.004881722359973317 0 0 0
305 1 5.47513557882889 26.95064223701546 6.622565807477487 0 0 0
306 1 8.190159354631504 26.950642237011678 6.622565807476849 0 0 0
307 1 7.30778265153403 25.67243820510449 4.392503671169885 0 0 0
308 1 10.022806427340049 25.672438205100118 4.392503671176751 0 0 0
309 1 9.140440553624027 24.394230056059097 2.1647773057239497 0 0 0
310 1 11.855464329435476 24.394230056058667 2.164777305735056 0 0 0
311 1 10.973077103786014 23.115981119471762 0.004817657168162341 0 0 0
312 1 13.68810087960113 23.115981119473336 0.0048176571843346295 0 0 0
313 1 7.239848776661368 29.507099526265193 6.6225263962533525 0 0 0
314 1 9.954872552472512 29.507099526261637 6.622526396251675 0 0 0
315 1 9.072499347222198 28.228889397699984 4.392465518634346 0 0 0
316 1 11.787523123035525 28.228889397697014 4.392465518639466 0 0 0
317 1 10.905176618803486 26.950705760059478 2.1647477398835338 0 0 0
318 1 13.62020039462025 26.95070576005745 2.164747739894838 0 0 0
319 1 12.7378340631252 25.672479156532148 0.004768836569491112 0 0 0
320 1 15.4528578389447 25.67247915653017 0.004768836584184325 0 0 0
321 1 9.004642808919064 32.063580772230274 6.622586170243332 0 0 0
322 1 11.719666584738192 32.06358077222914 6.6225861702414575 0 0 0
323 1 10.837267625948499 30.785381808027644 4.392522481820345 0 0 0
324 1 13.55229140176812 30.78538180802651 4.392522481823596 0 0 0
325 1 12.669923119194005 29.50717861488609 2.164801192712116 0 0 0
326 1 15.384946895014478 29.507178614883866 2.164801192717879 0 0 0
327 1 14.502586773573194 28.22898577060381 0.004787919556525599 0 0 0
328 1 17.217610549393253 28.22898577059944 0.004787919563041134 0 0 0
329 1 10.769450010915406 34.620100336205624 6.622688803626385 0 0 0
330 1 13.484473786734872 34.62010033620917 6.622688803625939 0 0 0
331 1 12.602078994738104 33.341888235015574 4.392637566905889 0 0 0
332 1 15.317102770558506 33.34188823501716 4.392637566908778 0 0 0
333 1 14.434718279503912 32.06368969043133 2.1648991786647587 0 0 0
334 1 17.14974205532533 32.0636896904303 2.164899178667742 0 0 0
335 1 16.267368905863773 30.78550095264552 0.00488461723971922 0 0 0
336 1 18.982392681686296 30.78550095264461 0.004884617240975784 0 0 0
337 1 12.534248279194001 37.17660016897333 6.622766878636725 0 0 0
338 1 15.249272055010552 37.17660016898032 6.622766878637818 0 0 0
339 1 14.366879988796 35.89837503713643 4.392744794787509 0 0 0
340 1 17.081903764613386 35.89837503713976 4.3927447947904525 0 0 0
341 1 16.199514774779406 34.62015002168311 2.164997184297787 0 0 0
342 1 18.914538550596067 34.62015002168307 2.1649971843002453 0 0 0
343 1 18.03214505046375 33.341966993784006 0.004978877993215764 0 0 0
344 1 20.747168826282813 33.341966993783174 0.004978877994343904 0 0 0
345 1 14.299011651683307 39.73310371280902 6.622729238296874 0 0 0
346 1 17.014035427502947 39.733103712816835 6.622729238299882 0 0 0
347 1 16.13164957752651 38.45485074596886 4.3927523676626175 0 0 0
348 1 18.846673353341433 38.454850745974454 4.392752367665022 0 0 0
349 1 17.96429210441258 37.176606027279476 2.1650450032608366 0 0 0
350 1 20.679315880225985 37.1766060272809 2.165045003261109 0 0 0
351 1 19.79691008255647 35.89839302398982 0.005047685738998457 0 0 0
352 1 22.51193385836978 35.8983930239884 0.005047685739206258 0 0 0
353 1 16.063755593299586 42.28955539010341 6.622700146576558 0 0 0
354 1 18.778779369123967 42.28955539010863 6.622700146583312 0 0 0
355 1 17.896384074457313 41.01130298331036 4.39269179462722 0 0 0
356 1 20.61140785027836 41.011302983313406 4.39269179462957 0 0 0
357 1 19.72901055413092 39.733039225074386 2.165016366731033 0 0 0
358 1 22.44403432994493 39.733039225074855 2.1650163667282727 0 0 0
359 1 21.561672080038576 38.45480526810995 0.005073043958052447 0 0 0
360 1 24.27669585585042 38.45480526810965 0.0050730439531549 0 0 0
361 1 17.828504868580588 44.845967577967635 6.622710050553153 0 0 0
362 1 20.543528644402627 44.84596757797011 6.622710050558833 0 0 0
363 1 19.66109632333509 43.56775779860867 4.392629024539545 0 0 0
364 1 22.376120099158634 43.567757798608454 4.392629024541311 0 0 0
365 1 21.493679576143148 42.28951092895604 2.164940684176149 0 0 0
366 1 24.20870335196171 42.28951092895513 2.1649406841738186 0 0 0
367 1 23.326339371545497 41.0112172494118 0.005011557054188191 0 0 0
368 1 26.041363147360205 41.01121724941304 0.005011557047376244 0 0 0
369 1 19.59326386283317 47.4023384104765 6.622780511383654 0 0 0
370 1 22.30828763865397 47.40233841047629 6.622780511385604 0 0 0
371 1 21.42581890421511 46.12414917475153 4.392650192729606 0 0 0
372 1 24.140842680040624 46.124149174750194 4.392650192731026 0 0 0
373 1 23.258388093835173 44.84594162308942 2.164883761594752 0 0 0
374 1 25.973411869657866 44.84594162308696 2.1648837615943513 0 0 0
375 1 25.09100152366408 43.567691781641294 0.0049200758108870635 0 0 0
376 1 21.358045089774198 49.958724245064516 6.622842955596456 0 0 0
377 1 24.07306886559847 49.95872424506028 6.622842955595967 0 0 0
378 1 23.190621614325746 48.68055984015833 4.392720712074591 0 0 0
379 1 25.90564539015231 48.68055984015419 4.392720712074967 0 0 0
380 1 25.023185292652183 47.40236961963038 2.164932232578509 0 0 0
381 1 1.402588075506358 1.3861646270326529 2.165080337895432 0 0 0
382 1 0.5201780856027063 0.10798559349924206 0.005085345923879377 0 0 0
383 1 3.2352018614052516 0.1079855934965083 0.005085345922400202 0 0 0
384 1 1.3346858763190115 5.220774466974635 4.3927797523388765 0 0 0
385 1 0.45233918181098637 3.9425869621167955 2.1650666049370444 0 0 0
386 1 3.1673629576129345 3.9425869621183316 2.16506660493323 0 0 0
387 1 2.285007985088217 2.664379595837941 0.0050898356770973235 0 0 0
388 1 5.000031760889435 2.664379595837328 0.005089835673010946 0 0 0
389 1 1.266662482211505 9.055416937868344 6.6227253155117465 0 0 0
390 1 0.3843797595295471 7.777218028666932 4.3927240396341976 0 0 0
391 1 3.0994035353331246 7.777218028667557 4.392724039632896 0 0 0
392 1 2.2170573884381937 6.499014165002598 2.1650406357941483 0 0 0
393 1 4.932081164242718 6.499014165004499 2.1650406357889884 0 0 0
394 1 4.049750745313069 5.220796016695958 0.0050640080788917465 0 0 0
395 1 6.764774521118813 5.220796016698284 0.00506400807306892 0 0 0
396 1 0.3163517397562006 11.61187956959872 6.62267225478522 0 0 0
397 1 3.0313755155638167 11.611879569594704 6.622672254790736 0 0 0
398 1 2.1490707294378573 10.333672854409484 4.392651619924204 0 0 0
399 1 4.864094505246611 10.333672854407167 4.392651619924497 0 0 0
400 1 3.9817666584925613 9.055456341821133 2.164962943684307 0 0 0
401 1 6.696790434304376 9.055456341822662 2.164962943679855 0 0 0
402 1 5.814424207135789 7.777237016410785 0.005022370789653295 0 0 0
403 1 8.529447982949803 7.777237016415433 0.005022370783420156 0 0 0
404 1 2.0812007502320897 14.168373698750894 6.622672847795896 0 0 0
405 1 4.796224526040489 14.168373698743263 6.622672847799097 0 0 0
406 1 3.9138464371295822 12.890123074366151 4.392622275076267 0 0 0
407 1 6.628870212937568 12.890123074358975 4.392622275079319 0 0 0
408 1 5.746504797666519 11.611895899787998 2.164930551655407 0 0 0
409 1 8.461528573480663 11.611895899786665 2.16493055165513 0 0 0
410 1 7.579162756296873 10.333657358209628 0.004943767870382269 0 0 0
411 1 10.294186532116202 10.333657358215998 0.0049437678677752795 0 0 0
412 1 3.846097107996752 16.72483623873026 6.622672378682516 0 0 0
413 1 6.561120883798864 16.724836238723512 6.622672378683659 0 0 0
414 1 5.678666067138858 15.446586989884675 4.392635753444712 0 0 0
415 1 8.393689842942706 15.446586989879272 4.392635753447908 0 0 0
416 1 7.511285779764091 14.16833732442739 2.1649190071198947 0 0 0
417 1 10.226309555574575 14.168337324428624 2.164919007124313 0 0 0
418 1 9.343925800771236 12.890125211224033 0.004931703069817113 0 0 0
419 1 12.058949576589834 12.890125211232215 0.004931703074284486 0 0 0
420 1 5.610969331842647 19.281318013408544 6.622664816455932 0 0 0
421 1 8.32599310763697 19.281318013403258 6.622664816454259 0 0 0
422 1 7.443493142448235 18.00306902898114 4.392619980571947 0 0 0
423 1 10.158516918246534 18.003069028978782 4.392619980574445 0 0 0
424 1 9.276060739182029 16.724829247068595 2.1649278344502534 0 0 0
425 1 11.991084514985827 16.724829247071987 2.164927834457249 0 0 0
426 1 11.10869138856972 15.446568739671397 0.004948968599922433 0 0 0
427 1 13.823715164382376 15.446568739682098 0.0049489686076352865 0 0 0
428 1 7.375758170489501 21.837772979266827 6.622624497201654 0 0 0
429 1 10.090781946286551 21.837772979263402 6.622624497199528 0 0 0
430 1 9.208319089333044 20.559536125812894 4.392586339975515 0 0 0
431 1 11.92334286513271 20.55953612581051 4.392586339980314 0 0 0
432 1 11.040865059347851 19.28129363613741 2.1648839303012286 0 0 0
433 1 13.755888835152472 19.281293636140468 2.164883930311964 0 0 0
434 1 12.873475224436765 18.00303884718192 0.004944864394053428 0 0 0
435 1 15.588499000247742 18.003038847191632 0.004944864406807482 0 0 0
436 1 9.140484057012591 24.394207926638124 6.622608389515547 0 0 0
437 1 11.855507832816834 24.39420792663471 6.622608389513093 0 0 0
438 1 10.973096866218869 23.11599645648432 4.392537176790969 0 0 0