LAMMPS data file via write_data, version 2 Aug 2023, timestep = 14746, units = metal

8000 atoms
3 atom types

0.002300430353055266 54.45720479189692 xlo xhi
-0.009599743594968981 51.354513667218114 ylo yhi
-0.0050645940118614705 44.47106440699449 zlo zhi

Masses

1 183.84
2 1.008
3 4.0026

Atoms # atomic

1 1 0.9887265277626148 20.536074215641715 -0.005064431715219234 0 0 0
2 1 0.9211464876744757 24.388359595288176 2.2187417149752666 0 0 0
3 1 0.03607784702313872 23.104268431840335 -0.005064487402428235 0 0 0
1358 1 26.3109063874451 25.67245140668158 22.23299981344072 0 0 0
1356 1 21.81803914313187 23.104268244027516 22.232999816116997 0 0 0
6 1 4.528944745277409 25.672451447142592 -0.0050644908977913634 0 0 0
1352 1 22.770687434692572 20.53607384590183 22.232999847702445 0 0 0
8 1 1.0564314581649084 16.683790220126188 2.218742491616135 0 0 0
1342 1 18.277898739982984 17.96788548460708 22.232999846817876 0 0 0
10 1 2.894204604934437 15.39969753887671 -0.00506424138376678 0 0 0
11 1 0.9887253310802067 20.536073677364 4.442548173276193 0 0 0
12 1 0.10368837072679979 19.25198364376239 2.21874227518005 0 0 0
13 1 2.8264329627509754 19.251983381021542 2.218741312479881 0 0 0
14 1 1.9414288797270887 17.96788616476763 -0.005064361159392225 0 0 0
1226 1 20.865415897509575 25.672451384735254 22.232999803340388 0 0 0
16 1 0.9211468966233253 24.388359794226247 6.666354828852045 0 0 0
17 1 0.036077234247977555 23.104268191399417 4.44254819642132 0 0 0
18 1 2.758823105831856 23.104268456529727 4.442548490077177 0 0 0
19 1 1.8737669048077872 21.820175632076875 2.2187415394792533 0 0 0
20 1 4.596512606226712 21.820175857332007 2.2187421009293122 0 0 0
1223 1 16.372548659315243 23.10426822644357 22.232999811057773 0 0 0
22 1 6.434216968780793 20.53607421817612 -0.005064409739782321 0 0 0
23 1 1.806199527071416 25.672451443954024 4.442548456382162 0 0 0
24 1 4.528944525844259 25.672451373894457 4.442548210741505 0 0 0
25 1 3.643892043005211 24.38835976246554 2.2187419428736543 0 0 0
26 1 6.366636885160989 24.38835957939789 2.2187416900567962 0 0 0
27 1 5.481568315358556 23.104268453692505 -0.005064468489235451 0 0 0
1218 1 17.325196917528057 20.53607381132684 22.232999836762225 0 0 0
29 1 9.974435198094465 25.672451460279294 -0.005064475048825547 0 0 0
30 1 1.2608629669727078 5.126858461428777 -0.00506354994195185 0 0 0
31 1 1.192493690987958 8.979179036384854 2.218739426146434 0 0 0
32 1 0.3076867568902861 7.69507654572455 -0.0050637495432804035 0 0 0
1207 1 12.832408242046336 17.967885452492034 22.23299983944052 0 0 0
34 1 1.1243480566564605 12.831492776762373 4.442548990230939 0 0 0
35 1 0.2394497575898261 11.547385630250727 2.2187400639760613 0 0 0
36 1 2.96219647975133 11.547386359430458 2.218743171675035 0 0 0
1194 1 13.785183214487061 15.39969647234335 22.232999885509482 0 0 0
38 1 4.8000795229039985 10.263287708451589 -0.005063911283588314 0 0 0
39 1 1.056430454174641 16.683789812318366 6.666353967472314 0 0 0
40 1 0.17145939013839895 15.399697536680529 4.442548771499611 0 0 0
41 1 2.894201582567508 15.399696102826415 4.442548053618747 0 0 0
42 1 2.0092646772845937 14.115588783213738 2.2187427883187953 0 0 0
43 1 4.732008688593018 14.115588264741127 2.2187406566141927 0 0 0
44 1 3.8470932419427846 12.831492763693747 -0.005064061165418559 0 0 0
1131 1 15.419925436481902 25.672451376831216 22.23299980312678 0 0 0
46 1 0.9887264726028044 20.536074193145172 8.890161492282878 0 0 0
47 1 0.10368765054212307 19.251983336991564 6.666354244760497 0 0 0
48 1 2.8264337448987678 19.251983716862757 6.666355159015294 0 0 0
49 1 1.941426916472388 17.967885209469635 4.442548108007415 0 0 0
50 1 4.664174103435569 17.967886165276074 4.442548668720405 0 0 0
51 1 3.7791757943692526 16.683789863701442 2.2187410333256055 0 0 0
52 1 6.501921956312488 16.683790253068494 2.2187424664648363 0 0 0
1129 1 10.927058222437378 23.104268229443125 22.23299981584308 0 0 0
54 1 8.339694937044582 15.399697490852738 -0.005064207419195819 0 0 0
55 1 0.921146347407845 24.388359531592403 11.113967526620975 0 0 0
56 1 0.03607783177387053 23.10426843226807 8.890161417617561 0 0 0
57 1 2.758822455721614 23.104268189119907 8.890161036487017 0 0 0
58 1 1.8737674735189322 21.820175899901066 6.666354985057539 0 0 0
59 1 4.596511988663168 21.82017556685228 6.666354439220731 0 0 0
60 1 3.711471771366777 20.536074227177476 4.442548562299233 0 0 0
61 1 6.434215754622942 20.53607367595219 4.442548144908134 0 0 0
62 1 5.54917885934808 19.25198366937309 2.2187422751678514 0 0 0
63 1 8.271923356858535 19.251983362314068 2.2187413323519234 0 0 0
64 1 7.386919280502747 17.967886144154985 -0.005064332795613908 0 0 0
1125 1 11.879706458105085 20.53607379970657 22.23299983734685 0 0 0
66 1 1.8061993337581108 25.672451384589486 8.890161079198084 0 0 0
67 1 4.52894477603759 25.672451465132234 8.890161416873912 0 0 0
68 1 3.6438915886384953 24.38835954124628 6.666354593853576 0 0 0
69 1 6.366637381913084 24.388359818652702 6.666354857449171 0 0 0
70 1 5.481567633360412 23.10426817380778 4.44254816975619 0 0 0
71 1 8.20431355566506 23.104268467663225 4.442548514033277 0 0 0
72 1 7.31925730101213 21.82017561403802 2.2187415357549085 0 0 0
73 1 10.042003074511074 21.820175873210278 2.2187420893948704 0 0 0
1115 1 7.386917834983771 17.967885463382906 22.232999848931282 0 0 0
75 1 11.879707351188562 20.53607419388724 -0.005064394177096307 0 0 0
76 1 7.251690007139205 25.67245147064563 4.442548482732195 0 0 0
77 1 9.974434941181647 25.67245136159941 4.442548187598829 0 0 0
78 1 9.08938251367717 24.388359779063368 2.21874195401518 0 0 0
79 1 11.81212729296914 24.38835956755521 2.2187416941041773 0 0 0
80 1 10.927058733882868 23.104268450360046 -0.005064452890292312 0 0 0
1105 1 8.33969276652939 15.399696467735254 22.232999888115234 0 0 0
1066 1 0.03607747360895667 23.10426828447098 22.232999843673205 0 0 0
83 1 1.3293800278404546 1.2745172261199897 2.218744245209853 0 0 0
3049 1 23.588161246820494 25.67245144791394 13.337774358677946 0 0 0
85 1 3.1674146703618797 -0.009589026794504008 -0.005063344360877805 0 0 0
86 1 1.2608538924690416 5.126854369425987 4.442547957008781 0 0 0
87 1 0.3761132566240288 3.8427356726410884 2.218744190886413 0 0 0
88 1 3.0988559437231475 3.8427346311897828 2.2187386392567428 0 0 0
89 1 2.2141238949951223 2.558637449263514 -0.005063374196251727 0 0 0
2972 1 12.697180182764242 25.672451363816066 17.785386844198822 0 0 0
91 1 1.1924957986853575 8.979180121112838 6.66635641016851 0 0 0
92 1 0.3076791136766638 7.6950732709447225 4.442548021050778 0 0 0
93 1 3.030431801855667 7.69507648516688 4.4425493848712865 0 0 0
94 1 2.1456326860926387 6.410957698150481 2.218739011793802 0 0 0
95 1 4.8683802480551135 6.4109587961232295 2.21874379126385 0 0 0
2876 1 15.419925380353579 25.672451355345764 13.337773909294622 0 0 0
97 1 6.706352935677421 5.126858240659271 -0.005063501295695951 0 0 0
98 1 1.1243439141881884 12.831490920029367 8.890160837717342 0 0 0
99 1 0.23945140153635927 11.547386427081678 6.666355988152998 0 0 0
100 1 2.962194702624228 11.547385505474791 6.666353088919419 0 0 0
101 1 2.07733437835963 10.26328774195378 4.442549150979123 0 0 0
102 1 4.800073808417009 10.263285294942989 4.442547950461744 0 0 0
103 1 3.9152408631128823 8.97918003054878 2.2187435899801864 0 0 0
104 1 6.63798403555245 8.979178997891621 2.218739605327065 0 0 0
105 1 5.753176887107603 7.695076427248724 -0.005063694326067847 0 0 0
2752 1 12.697180150642193 25.672451354810946 8.890161027769231 0 0 0
107 1 1.0564316373274414 16.683790308784612 11.113968143242833 0 0 0
108 1 0.17145654739748062 15.399696196557082 8.890160923082208 0 0 0
109 1 2.8942044403507667 15.399697460734657 8.89016176727107 0 0 0
110 1 2.00926332246823 14.115588202619751 6.66635359718401 0 0 0
111 1 4.73201012590004 14.115588885167485 6.666355613365156 0 0 0
112 1 3.8470889043663283 12.831490820446257 4.44254797601701 0 0 0
113 1 6.569838376484308 12.831492733850704 4.442549040587982 0 0 0
114 1 5.684940096329024 11.547385590166192 2.2187401487146277 0 0 0
115 1 8.40768697863158 11.547386386543774 2.2187430362779033 0 0 0
2741 1 7.251689996006065 25.672451471405516 13.337774345977168 0 0 0
117 1 10.245569621785647 10.263287581217883 -0.0050638859211027225 0 0 0
118 1 0.9887255133722294 20.53607375885002 13.337773933137237 0 0 0
119 1 0.10368852035833924 19.251983716861385 11.11396796900109 0 0 0
120 1 2.82643279630576 19.251983304832336 11.113967204786931 0 0 0
121 1 1.941428777004025 17.967886111598272 8.890161605863886 0 0 0
122 1 4.664172225576399 17.96788526236324 8.890160929200938 0 0 0
123 1 3.7791768728379584 16.68379031207057 6.666355356361298 0 0 0
124 1 6.5019208228585565 16.68378978298214 6.666353976366703 0 0 0
125 1 5.616949795727369 15.399697524876526 4.442548821952427 0 0 0
126 1 8.33969210318979 15.399696151029339 4.44254802297712 0 0 0
127 1 7.454755180775983 14.115588819736246 2.218742720728794 0 0 0
128 1 10.177499086463087 14.11558825497433 2.2187407571486584 0 0 0
129 1 9.292583467536968 12.831492674326187 -0.005064025670301881 0 0 0
2597 1 12.697180438831076 25.67245147311537 4.4425485011022525 0 0 0
131 1 0.921146932226838 24.388359805338244 15.561580581568931 0 0 0
132 1 0.03607733433801211 23.10426822876378 13.337773947598658 0 0 0
133 1 2.758823013584112 23.10426842281408 13.337774340126586 0 0 0
134 1 1.8737667550701866 21.82017555609566 11.113967389846689 0 0 0
135 1 4.596512760155264 21.820175933335292 11.113967860603433 0 0 0
136 1 3.711470590646142 20.53607369890089 8.890161010660995 0 0 0
137 1 6.434216943712035 20.53607420832781 8.89016152525066 0 0 0
138 1 5.549178023251726 19.25198330943411 6.666354233593686 0 0 0
139 1 8.271924226214193 19.251983741025466 6.666355152294851 0 0 0
140 1 7.386917375402452 17.96788522833542 4.44254807373064 0 0 0
141 1 10.109664479673846 17.967886133620357 4.442548689728291 0 0 0
142 1 9.224666187688149 16.683789848357755 2.2187410860199455 0 0 0
143 1 11.947412414221422 16.68379026927127 2.2187423941474065 0 0 0
2435 1 15.41992559880596 25.672451446732527 -0.005064467043615571 0 0 0
145 1 13.785185190198934 15.399697401222607 -0.005064194378306145 0 0 0
146 1 1.8061995061256397 25.672451442562814 13.337774314784385 0 0 0
147 1 4.528944544958148 25.672451376456703 13.337773948882809 0 0 0
148 1 3.6438921902251926 24.388359829014377 11.113967730836809 0 0 0
149 1 6.36663673034466 24.388359508766076 11.113967495389653 0 0 0
150 1 5.4815683152996675 23.10426845760864 8.890161449641663 0 0 0
151 1 8.204312863209207 23.104268174936983 8.890161011364603 0 0 0
152 1 7.319257957572441 21.820175923449888 6.666354998567989 0 0 0
153 1 10.042002390737412 21.82017555094898 6.666354442636043 0 0 0
154 1 9.156962191424968 20.536074220245712 4.4425485842266115 0 0 0
155 1 11.879706234217144 20.536073696117004 4.442548132855696 0 0 0
156 1 10.994669323713268 19.251983685043484 2.2187422358120865 0 0 0
157 1 13.717413781053066 19.25198335568692 2.218741385366213 0 0 0
158 1 12.832409611377829 17.967886091809774 -0.005064315815468704 0 0 0
1064 1 25.834086511473135 1.2745170436025883 20.009192365072025 0 0 0
160 1 7.251689720855598 25.672451360522448 8.890161048727974 0 0 0
161 1 9.974435241419311 25.672451483371592 8.890161444988255 0 0 0
162 1 9.089381980444372 24.38835952290045 6.666354578923264 0 0 0
163 1 11.812127852431155 24.388359832764724 6.666354859896351 0 0 0
164 1 10.927058079924832 23.104268175553635 4.4425481526589765 0 0 0
165 1 13.649803958361272 23.10426845455131 4.4425485245713 0 0 0
166 1 12.76474771593445 21.820175602101273 2.218741563012687 0 0 0
167 1 15.487493519224248 21.82017587553285 2.218742049955536 0 0 0
1063 1 25.697201490953933 8.979179467991589 20.0091935745156 0 0 0
169 1 17.3251976955389 20.53607415225697 -0.005064390904804949 0 0 0
170 1 15.419925407762078 25.672451372605515 4.442548176497366 0 0 0
171 1 14.534872969119748 24.388359785400148 2.2187419351812094 0 0 0
172 1 17.257617721500342 24.388359564317042 2.2187417258536897 0 0 0
173 1 16.372549109276797 23.104268423557556 -0.005064446434188176 0 0 0
1062 1 25.765564294786838 5.12685593864905 17.785387692572396 0 0 0
1061 1 26.650340410794012 6.410958097856998 20.009193504545213 0 0 0
176 1 20.865415960616023 25.672451411184 -0.005064469550917621 0 0 0
177 1 1.3293773164672822 1.274516219048624 6.66635155596599 0 0 0
178 1 0.4446695660634115 -0.009588970968663844 4.442549661922658 0 0 0
179 1 3.1674045836851725 -0.009593438676292143 4.442548061962359 0 0 0
180 1 1.2608622794019466 5.126858147745924 8.890162465699778 0 0 0
181 1 0.37611063368552694 3.842734584206046 6.666351641514226 0 0 0
182 1 3.0988586995065432 3.8427357788504644 6.666356787835373 0 0 0
183 1 2.2141139286408587 2.558632895247264 4.4425479367354646 0 0 0
184 1 4.936868698146496 2.5586372667881805 4.442549729594012 0 0 0
185 1 4.052122597560695 1.2745162320642232 2.218738572942852 0 0 0
186 1 6.774870487254908 1.2745172390272883 2.2187438998392475 0 0 0
1060 1 23.927595795072566 6.410958329934432 20.00919250255487 0 0 0
188 1 8.612904357010622 -0.009589364825203617 -0.005063361883640235 0 0 0
189 1 1.1924935202769305 8.97917894941751 11.113965737747865 0 0 0
190 1 0.30768618171792617 7.695076320824622 8.890162286849831 0 0 0
191 1 3.0304248657488673 7.695073497511468 8.890160833751724 0 0 0
192 1 2.145635180073102 6.410958882306225 6.666356642598292 0 0 0
193 1 4.868377654070341 6.410957571706869 6.666352171515323 0 0 0
194 1 3.9836079043693635 5.126858328830532 4.44254958437 0 0 0
195 1 6.706344772428691 5.126854577143858 4.44254791459053 0 0 0
196 1 5.821603781945596 3.842735714310643 2.218743914182227 0 0 0
197 1 8.54434639575058 3.8427346282220207 2.21873898661545 0 0 0
198 1 7.6596136622290505 2.558637154484223 -0.005063350413806764 0 0 0
1059 1 25.834084871477135 1.2745164076672288 15.561580907270882 0 0 0
200 1 1.124347355017171 12.831492472969167 13.337774797191154 0 0 0
201 1 0.2394495658654212 11.547385543023005 11.113966236394612 0 0 0
202 1 2.962196676662803 11.547386452051454 11.113968647185317 0 0 0
203 1 2.0773288484075803 10.26328539819565 8.890160821213042 0 0 0
204 1 4.80007919547192 10.263287593359678 8.890162139143458 0 0 0
205 1 3.9152386235497794 8.979178892360428 6.666352537548506 0 0 0
206 1 6.637986324122365 8.979180164076856 6.66635628013662 0 0 0
207 1 5.753169814746017 7.695073388653228 4.442547956038749 0 0 0
208 1 8.475921860800936 7.695076329312908 4.442549396218504 0 0 0
209 1 7.591123064504661 6.410957675661478 2.2187392720549246 0 0 0
210 1 10.313870658775336 6.410958794373068 2.2187434823806345 0 0 0
1058 1 26.71882468660653 2.5586346894884047 17.785387976811478 0 0 0
212 1 12.151842754969596 5.126857955117683 -0.005063514183941043 0 0 0
213 1 1.0564305351302583 16.683789849732822 15.561580016771225 0 0 0
214 1 0.1714588965460097 15.399697305110248 13.337774599965673 0 0 0
215 1 2.8942020081838544 15.399696317295062 13.337773827025153 0 0 0
216 1 2.0092648715203922 14.115588868538737 11.113968362426526 0 0 0
217 1 4.732008478562479 14.115588184889376 11.113966652780665 0 0 0
218 1 3.8470929972145207 12.831492662417215 8.890161995120561 0 0 0
219 1 6.569834392216208 12.831490936362927 8.890160788812727 0 0 0
220 1 5.6849419517819335 11.547386478468933 6.666355939882204 0 0 0
221 1 8.407685093417271 11.547385495702356 6.666353190285561 0 0 0
222 1 7.522824587464689 10.263287661113845 4.442549186460956 0 0 0
223 1 10.245564550260923 10.263285412101173 4.442547955824151 0 0 0
224 1 9.360731332882002 8.979180052233632 2.218743354902086 0 0 0
225 1 12.083474495783008 8.979179015357902 2.21873987594657 0 0 0
226 1 11.198666834712729 7.695076224367673 -0.005063686711380866 0 0 0
1057 1 23.996081706694707 2.5586356822277776 17.78538715318332 0 0 0
228 1 0.9887262242465356 20.53607408498738 17.785387236478552 0 0 0
229 1 0.10368768290701012 19.25198335094282 15.561580224351369 0 0 0
230 1 2.8264337016089796 19.251983706530417 15.561580797661133 0 0 0
231 1 1.9414272028118997 17.967885360984464 13.3377738672485 0 0 0
232 1 4.664173847581136 17.967886038650345 13.337774510887353 0 0 0
233 1 3.7791756007485247 16.683789782454667 11.113966960996441 0 0 0
234 1 6.501922143060081 16.683790345918453 11.11396816826874 0 0 0
235 1 5.61694696613558 15.39969619029277 8.890160869362072 0 0 0
236 1 8.339694843917163 15.399697447537566 8.890161796312631 0 0 0
237 1 7.4547536917529635 14.115588179414308 6.666353639590265 0 0 0
238 1 10.177500579373241 14.115588897696922 6.666355537767402 0 0 0
239 1 9.292579523420622 12.831490901491891 4.4425479543325395 0 0 0
240 1 12.015328576589672 12.831492630590036 4.44254902745282 0 0 0
241 1 11.130430514744267 11.547385589172508 2.218740322716289 0 0 0
242 1 13.853177385452774 11.547386369074145 2.2187428403629434 0 0 0
1056 1 24.880819542791308 3.8427353582239814 20.009192389356784 0 0 0
244 1 15.691059668189286 10.263287424456566 -0.005063902882011021 0 0 0
245 1 0.9211464278427915 24.388359574371172 20.00919338994456 0 0 0
246 1 0.036077681297647074 23.104268372633214 17.78538718972638 0 0 0
247 1 2.758822593312318 23.104268242330935 17.785386869123084 0 0 0
248 1 1.8737674730013947 21.820175900109675 15.56158068726254 0 0 0
249 1 4.596511987239788 21.820175563821447 15.561580326374823 0 0 0
250 1 3.711471606902363 20.536074155817733 13.33777440630595 0 0 0
251 1 6.434215887619613 20.53607373523755 13.337773903236108 0 0 0
252 1 5.549179024003795 19.25198375065028 11.113968001804292 0 0 0
253 1 8.271923189906522 19.25198328395956 11.113967190950769 0 0 0
254 1 7.3869192261315595 17.967886115656263 8.890161642872577 0 0 0
255 1 10.10966268574462 17.96788527940994 8.890160912290897 0 0 0
256 1 9.224667346149243 16.683790336044833 6.666355324552792 0 0 0
257 1 11.947411259379974 16.683789782462025 6.666354032079657 0 0 0
258 1 11.062440099634735 15.39969746206101 4.442548832590002 0 0 0
259 1 13.785182702879272 15.39969623504486 4.442548035898504 0 0 0
260 1 12.900245621410427 14.115588823269274 2.2187425957556703 0 0 0
261 1 15.622989549414584 14.115588270204844 2.218740891848472 0 0 0
262 1 14.738073618111583 12.8314925455366 -0.005064024111514858 0 0 0
1055 1 22.158073360980282 3.842735013015386 20.00919365620212 0 0 0
264 1 1.8061993970549661 25.672451405921908 17.785386886221836 0 0 0
265 1 4.5289447156357285 25.67245144537789 17.785387207743085 0 0 0
266 1 3.643891553136336 24.38835952841515 15.561580437261092 0 0 0
267 1 6.366637415143857 24.388359828232392 15.56158061929174 0 0 0
268 1 5.481567708999554 23.10426820129928 13.33777391842278 0 0 0
269 1 8.204313496050576 23.104268445128604 13.337774366243563 0 0 0
270 1 7.319257141911669 21.820175534081656 11.113967365290291 0 0 0
271 1 10.042003229730796 21.820175947879182 11.113967873712207 0 0 0
272 1 9.156961018512572 20.5360736978362 8.890160989574417 0 0 0
273 1 11.879707361411134 20.536074198313255 8.89016153489953 0 0 0
274 1 10.994668438681169 19.251983297864367 6.6663542589849545 0 0 0
275 1 13.717414657498658 19.251983743205454 6.666355110366435 0 0 0
276 1 12.83240790280493 17.967885276638025 4.442548068095561 0 0 0
277 1 15.555154801383377 17.967886077195192 4.442548679954007 0 0 0
278 1 14.670156626541806 16.683789850445624 2.218741173021125 0 0 0
279 1 17.392902823513804 16.68379026151427 2.218742302114963 0 0 0
1054 1 24.949372454964855 -0.009590770534699745 17.785387000958742 0 0 0
281 1 19.230675432999178 15.399697306625793 -0.005064206387095017 0 0 0
282 1 9.974434942476336 25.672451357649482 13.337773922332252 0 0 0
283 1 9.08938267307123 24.388359850236206 11.113967754295947 0 0 0
284 1 11.8121271307407 24.38835949472877 11.113967485907187 0 0 0
285 1 10.927058758045277 23.10426846315475 8.890161468917443 0 0 0
286 1 13.649803316070102 23.104268179740277 8.890161003642795 0 0 0
287 1 12.764748410752645 21.820175929923288 6.666354981661573 0 0 0
288 1 15.48749282897451 21.82017555046353 6.666354473806746 0 0 0
289 1 14.60245256087493 20.536074189630412 4.442548586045764 0 0 0
290 1 17.32519675385422 20.536073730847427 4.442548141743978 0 0 0
291 1 16.44015975336483 19.251983684634514 2.218742171779555 0 0 0
292 1 19.1629042396636 19.2519833626628 2.21874145161824 0 0 0
293 1 18.277899912242 17.96788602680331 -0.005064316225398538 0 0 0
1053 1 22.2266248667551 -0.009591867375010246 17.785388038574006 0 0 0
295 1 15.41992566118282 25.67245147818523 8.890161458778811 0 0 0
296 1 14.534872395670876 24.388359515339076 6.666354591804088 0 0 0
297 1 17.25761829522589 24.388359831258782 6.666354835066891 0 0 0
298 1 16.372548570400166 23.10426819651383 4.442548151548442 0 0 0
299 1 19.095294326454155 23.104268422421438 4.442548517873479 0 0 0
300 1 18.210238157683968 21.820175601857 2.2187416110978977 0 0 0
301 1 20.93298393737431 21.82017586402936 2.218741997775829 0 0 0
1052 1 23.11133974184328 1.2745164496847334 20.009193593063966 0 0 0
303 1 22.77068803653411 20.536074109132787 -0.00506440069910909 0 0 0
304 1 18.142670823247382 25.67245145019014 4.442548504732596 0 0 0
305 1 20.865415914124483 25.67245140252264 4.4425481815556 0 0 0
306 1 19.980363402318744 24.38835977923246 2.218741893514724 0 0 0
307 1 22.70310817335628 24.38835957082024 2.218741773180759 0 0 0
308 1 21.818039464457005 23.1042683837642 -0.005064451405097991 0 0 0
1051 1 20.388595810506597 1.2745169370603788 20.00919214896029 0 0 0
310 1 26.310906311851536 25.67245136713899 -0.00506448138119398 0 0 0
311 1 1.3293798921669369 1.2745171615837239 11.113969358453454 0 0 0
312 1 0.44465983900947503 -0.009593241834589865 8.890161041745934 0 0 0
313 1 3.167413878017231 -0.009589376626313408 8.890162519030204 0 0 0
314 1 1.260855349126543 5.12685502201756 13.33777391228381 0 0 0
315 1 0.37611323926971724 3.842735675024695 11.11396932567172 0 0 0
316 1 3.0988559676695213 3.8427346210288986 11.113965039429962 0 0 0
317 1 2.2141230926490922 2.558637098631559 8.890162605853185 0 0 0
318 1 4.936859953244303 2.558633287045273 8.89016084908207 0 0 0
319 1 4.0521253673752495 1.2745172701348912 6.666356790507913 0 0 0
320 1 6.7748677822234304 1.274516218582029 6.666351842928637 0 0 0
321 1 5.8901594002316875 -0.009589241984057308 4.44254965963127 0 0 0
322 1 8.612895763972725 -0.009593123483130635 4.442548128473659 0 0 0
323 1 1.192495430897244 8.979179940212717 15.561581462861053 0 0 0
324 1 0.30768033419402996 7.695073786029629 13.337773904448277 0 0 0
325 1 3.030430689545846 7.695076026060901 13.33777510718356 0 0 0
326 1 2.1456325733729265 6.410957631093048 11.113965353192418 0 0 0
327 1 4.868380316755621 6.41095886528225 11.113969133007053 0 0 0
328 1 3.9835998254091076 5.126854695402407 8.890160804891698 0 0 0
329 1 6.706352432944183 5.126858014241863 8.890162498507253 0 0 0
330 1 5.821601011982017 3.842734550343599 6.666351865026137 0 0 0
331 1 8.544349073758877 3.8427357587437823 6.666356501672688 0 0 0
332 1 7.659604946336701 2.5586331835673 4.44254794937189 0 0 0
333 1 10.38235843578628 2.558636964174532 4.44254964196975 0 0 0
334 1 9.4976131148064 1.2745162538645551 2.2187389689494266 0 0 0
335 1 12.220360759364306 1.2745171792115653 2.2187434913788153 0 0 0
1049 1 25.561137796112366 16.68378997045564 20.009193132985057 0 0 0
337 1 14.058394082868094 -0.00958968688763792 -0.005063446965464319 0 0 0
338 1 1.1243447357547511 12.831491288234155 17.785386870945796 0 0 0
339 1 0.2394511529623173 11.547386306897273 15.56158122083288 0 0 0
340 1 2.962194936593202 11.547385629061017 15.561579397508801 0 0 0
341 1 2.07733347335014 10.263287387484889 13.337774922084765 0 0 0
342 1 4.8000745829582545 10.263285601914529 13.337773789668535 0 0 0
343 1 3.91524102557235 8.979180129908665 11.113968959584222 0 0 0
344 1 6.63798387792969 8.979178918826433 11.113965786037841 0 0 0
345 1 5.753176471685058 7.6950762601053215 8.890162347904726 0 0 0
346 1 8.475915559575302 7.695073611972459 8.890160835237642 0 0 0
347 1 7.591125638271739 6.41095890133899 6.666356433870012 0 0 0
348 1 10.313868178708928 6.410957613932402 6.66635243175507 0 0 0
349 1 9.42909781428851 5.126858082316729 4.4425495605534415 0 0 0
350 1 12.151835801912412 5.1268548501158415 4.4425479987324055 0 0 0
351 1 11.267094131232293 3.8427356809542785 2.2187435410899283 0 0 0
352 1 13.989837001687699 3.842734689387355 2.218739359670735 0 0 0
353 1 13.105103356816793 2.558636828157653 -0.005063400750010632 0 0 0
1048 1 23.723389305235262 17.967885547403554 22.23299986846147 0 0 0
355 1 1.05643131166295 16.68379018285368 20.009193692490054 0 0 0
356 1 0.17145713406311822 15.399696487732284 17.78538687620195 0 0 0
357 1 2.894203894508698 15.399697206640612 17.785387409825407 0 0 0
358 1 2.0092634673791485 14.115588277152918 15.561579762286241 0 0 0
359 1 4.732009962057585 14.115588820115201 15.561581093382587 0 0 0
360 1 3.847089503666463 12.831491084395575 13.337773767745704 0 0 0
361 1 6.5698378465259895 12.831492506416069 13.3377748433144 0 0 0
362 1 5.684939890127727 11.547385502708002 11.113966228646744 0 0 0
363 1 8.407687149729783 11.547386462001562 11.11396860966593 0 0 0
364 1 7.522819417900441 10.263285446044305 8.890160795508178 0 0 0
365 1 10.245569419064159 10.263287511657328 8.890162113725088 0 0 0
366 1 9.36072906519001 8.97917890494094 6.666352726875588 0 0 0
367 1 12.083476660654098 8.979180110836353 6.666356050379637 0 0 0
368 1 11.198660696505707 7.695073579246975 4.4425479903716925 0 0 0
369 1 13.921411815289941 7.695076126134515 4.442549311058557 0 0 0
370 1 13.03661358626023 6.410957715676555 2.218739597176378 0 0 0
371 1 15.759360933944688 6.410958724068663 2.2187431689290555 0 0 0
1047 1 25.629053469169143 12.831492096826313 17.785387301659465 0 0 0
373 1 17.597332657604642 5.12685771303952 -0.005063585182937162 0 0 0
374 1 0.9887257230922976 20.536073852722485 22.232999866477407 0 0 0
375 1 0.10368830444207554 19.251983628422995 20.00919358366605 0 0 0
376 1 2.8264330192952207 19.251983404618148 20.009193173368974 0 0 0
377 1 1.94142840244966 17.967885928158704 17.785387304430206 0 0 0
378 1 4.66417255171248 17.967885429657546 17.785386834256087 0 0 0
379 1 3.779176779695106 16.683790287268074 15.561580940098901 0 0 0
380 1 6.501920911679171 16.683789821198687 15.561579963435992 0 0 0
381 1 5.616949416433935 15.399697349931701 13.337774652551333 0 0 0
382 1 8.3396924114642 15.399696300880985 13.337773802637408 0 0 0
383 1 7.4547553718605215 14.115588902157832 11.113968364507251 0 0 0
384 1 10.17749890940043 14.115588185967697 11.113966686041477 0 0 0
385 1 9.292583322577496 12.831492618907141 8.890162002080004 0 0 0
386 1 12.01532499670288 12.831491012466119 8.890160823172284 0 0 0
387 1 11.130432363634675 11.54738646054034 6.666355799394681 0 0 0
388 1 13.853175621671685 11.547385546079557 6.666353357968061 0 0 0
389 1 12.968314670077406 10.263287521731595 4.442549143263721 0 0 0
390 1 15.69105534975919 10.263285558127004 4.442548034753111 0 0 0
391 1 14.806221682226559 8.979180010171028 2.2187430772582464 0 0 0
392 1 17.528965060115496 8.979179080388855 2.2187401349813594 0 0 0
393 1 16.6441567849536 7.6950760194716965 -0.005063728093838317 0 0 0
1046 1 26.513970913475315 14.11558848703537 20.009193031892064 0 0 0
1045 1 23.791226014249762 14.115588613869335 20.009193653563973 0 0 0
396 1 1.8737668991965808 21.820175625078846 20.009193300302357 0 0 0
397 1 4.596512602227053 21.820175854032918 20.009193562149854 0 0 0
398 1 3.711470809295525 20.536073797091397 17.785386872255653 0 0 0
399 1 6.434216746071584 20.536074120056917 17.7853872619272 0 0 0
400 1 5.5491780612435315 19.2519833244993 15.561580173488993 0 0 0
401 1 8.271924177348897 19.251983727639498 15.56158083437922 0 0 0
402 1 7.386917582332557 17.967885338206344 13.337773834494113 0 0 0
403 1 10.109664306365245 17.967886046973643 13.337774527022109 0 0 0
404 1 9.224666008232118 16.68378976744346 11.113966964172267 0 0 0
405 1 11.947412568230167 16.683790348900455 11.11396814184001 0 0 0
406 1 11.062437482772653 15.399696232549301 8.89016087106243 0 0 0
407 1 13.78518515768003 15.399697389596305 8.89016176700062 0 0 0
408 1 12.900244161212314 14.115588198425863 6.666353740978007 0 0 0
409 1 15.622990932233126 14.115588862684609 6.666355418729724 0 0 0
410 1 14.738070220462168 12.831491020321696 4.442547995407068 0 0 0
411 1 17.46081874557378 12.831492506667876 4.442548956363393 0 0 0
412 1 16.57592101990165 11.547385625901958 2.2187405201510577 0 0 0
413 1 19.298667712990305 11.547386313533474 2.218742658737237 0 0 0
1043 1 25.697201540152946 8.979179502158107 15.56157957989452 0 0 0
415 1 21.136549811028555 10.263287296777003 -0.005063954249408716 0 0 0
416 1 4.5289446250585295 25.672451408525227 22.232999827989726 0 0 0
417 1 3.643892098652984 24.3883597792555 20.00919347188922 0 0 0
418 1 6.3666368304594965 24.388359559646332 20.00919335201704 0 0 0
419 1 5.481568190009797 23.10426840599457 17.785387214924917 0 0 0
420 1 8.204312969493344 23.10426821581455 17.785386849530784 0 0 0
421 1 7.319257953026944 21.820175920105648 15.561580727362538 0 0 0
422 1 10.04200239400308 21.82017555053935 15.561580300870018 0 0 0
423 1 9.156962082289754 20.53607417080384 13.337774427092915 0 0 0
424 1 11.879706312510775 20.536073732615357 13.337773895660126 0 0 0
425 1 10.9946694764569 19.251983762777606 11.113967997683849 0 0 0
426 1 13.717413639398485 19.251983285284297 11.113967213135535 0 0 0
427 1 12.832409604928314 17.967886085729816 8.890161640387365 0 0 0
428 1 15.555153207571104 17.967885322453796 8.890160935259866 0 0 0
429 1 14.67015774641368 16.6837903275909 6.666355252787458 0 0 0
430 1 17.392901763592565 16.683789809558487 6.666354114118429 0 0 0
431 1 16.507930351773158 15.399697373132327 4.442548799550283 0 0 0
432 1 19.230673319275642 15.39969632378929 4.442548087092835 0 0 0
433 1 18.345735996905425 14.115588795242996 2.2187424610605047 0 0 0
434 1 21.06848006690013 14.115588305398765 2.2187410100531815 0 0 0
435 1 20.18356380316381 12.831492424954767 -0.005064057035899909 0 0 0
1042 1 26.58203916697938 10.263286858579125 17.78538727183537 0 0 0
437 1 7.251689775852966 25.67245137961048 17.78538686202732 0 0 0
438 1 9.974435197379842 25.672451468204294 17.785387230926357 0 0 0