LAMMPS data file via write_data, version 2 Aug 2023, timestep = 3, units = metal

686 atoms
3 atom types

-1.0380103477169308e-06 22.009548038010344 xlo xhi
-1.0380103476660976e-06 22.009548038010344 ylo yhi
-1.0380103477603726e-06 22.009548038010344 zlo zhi

Masses

1 183.84
2 1.008
3 4.0026

Atoms # atomic

1 1 -1.0380103477161543e-06 -1.0380103476653283e-06 -1.0380103477594108e-06 0 0 0
2 1 1.5721096102768446 1.5721096102768446 1.5721096102768446 0 0 0
3 1 3.1442202585640366 -1.0380103476652972e-06 -1.0380103477594836e-06 0 0 0
4 1 4.716330906851229 1.5721096102768446 1.5721096102768446 0 0 0
5 1 6.288441555138421 -1.038010347665341e-06 -1.0380103477594375e-06 0 0 0
6 1 7.860552203425612 1.5721096102768446 1.5721096102768446 0 0 0
7 1 9.432662851712806 -1.0380103476653675e-06 -1.0380103477594618e-06 0 0 0
8 1 11.004773499999997 1.5721096102768446 1.5721096102768446 0 0 0
9 1 12.57688414828719 -1.03801034766535e-06 -1.0380103477594423e-06 0 0 0
10 1 14.14899479657438 1.5721096102768446 1.5721096102768446 0 0 0
11 1 15.721105444861571 -1.0380103476653823e-06 -1.038010347759471e-06 0 0 0
12 1 17.293216093148768 1.5721096102768446 1.5721096102768446 0 0 0
13 1 18.86532674143596 -1.0380103476653545e-06 -1.0380103477594512e-06 0 0 0
14 1 20.43743738972315 1.5721096102768446 1.5721096102768446 0 0 0
15 1 -1.0380103477160802e-06 3.144220258564037 -1.0380103477595378e-06 0 0 0
16 1 1.5721096102768446 4.716330906851229 1.5721096102768446 0 0 0
17 1 3.1442202585640366 3.144220258564037 -1.0380103477594224e-06 0 0 0
18 1 4.716330906851229 4.716330906851229 1.5721096102768446 0 0 0
19 1 6.288441555138421 3.144220258564037 -1.0380103477594588e-06 0 0 0
20 1 7.860552203425612 4.716330906851229 1.5721096102768446 0 0 0
21 1 9.432662851712806 3.144220258564037 -1.0380103477595181e-06 0 0 0
22 1 11.004773499999997 4.716330906851229 1.5721096102768446 0 0 0
23 1 12.57688414828719 3.144220258564037 -1.038010347759444e-06 0 0 0
24 1 14.14899479657438 4.716330906851229 1.5721096102768446 0 0 0
25 1 15.721105444861571 3.144220258564037 -1.038010347759537e-06 0 0 0
26 1 17.293216093148768 4.716330906851229 1.5721096102768446 0 0 0
27 1 18.86532674143596 3.144220258564037 -1.0380103477594508e-06 0 0 0
28 1 20.43743738972315 4.716330906851229 1.5721096102768446 0 0 0
29 1 -1.03801034771613e-06 6.288441555138421 -1.0380103477594872e-06 0 0 0
30 1 1.5721096102768446 7.860552203425612 1.5721096102768446 0 0 0
31 1 3.1442202585640366 6.288441555138421 -1.038010347759457e-06 0 0 0
32 1 4.716330906851229 7.860552203425612 1.5721096102768446 0 0 0
33 1 6.288441555138421 6.288441555138421 -1.0380103477594334e-06 0 0 0
34 1 7.860552203425612 7.860552203425612 1.5721096102768446 0 0 0
35 1 9.432662851712806 6.288441555138421 -1.0380103477594872e-06 0 0 0
36 1 11.004773499999997 7.860552203425612 1.5721096102768446 0 0 0
37 1 12.57688414828719 6.288441555138421 -1.0380103477593892e-06 0 0 0
38 1 14.14899479657438 7.860552203425612 1.5721096102768446 0 0 0
39 1 15.721105444861571 6.288441555138421 -1.0380103477595097e-06 0 0 0
40 1 17.293216093148768 7.860552203425612 1.5721096102768446 0 0 0
41 1 18.86532674143596 6.288441555138421 -1.038010347759396e-06 0 0 0
42 1 20.43743738972315 7.860552203425612 1.5721096102768446 0 0 0
43 1 -1.038010347716204e-06 9.432662851712806 -1.03801034775946e-06 0 0 0
44 1 3.1442202585640366 9.432662851712806 -1.0380103477595126e-06 0 0 0
45 1 6.288441555138421 9.432662851712806 -1.038010347759456e-06 0 0 0
46 1 9.432662851712806 9.432662851712806 -1.0380103477594781e-06 0 0 0
47 1 12.57688414828719 9.432662851712806 -1.0380103477593775e-06 0 0 0
48 1 15.721105444861571 9.432662851712806 -1.0380103477595023e-06 0 0 0
49 1 18.86532674143596 9.432662851712806 -1.0380103477593907e-06 0 0 0
50 1 -1.0380103477161153e-06 -1.0380103476652415e-06 3.144220258564037 0 0 0
51 1 1.5721096102768446 1.5721096102768446 4.716330906851228 0 0 0
52 1 3.1442202585640366 -1.0380103476652146e-06 3.144220258564037 0 0 0
53 1 4.716330906851229 1.5721096102768446 4.716330906851228 0 0 0
54 1 6.288441555138421 -1.0380103476652074e-06 3.144220258564037 0 0 0
55 1 7.860552203425612 1.5721096102768446 4.716330906851228 0 0 0
56 1 9.432662851712806 -1.038010347665261e-06 3.144220258564037 0 0 0
57 1 11.004773499999997 1.5721096102768446 4.716330906851228 0 0 0
58 1 12.57688414828719 -1.0380103476652135e-06 3.144220258564037 0 0 0
59 1 14.14899479657438 1.5721096102768446 4.716330906851228 0 0 0
60 1 15.721105444861571 -1.0380103476653228e-06 3.144220258564037 0 0 0
61 1 17.293216093148768 1.5721096102768446 4.716330906851228 0 0 0
62 1 18.86532674143596 -1.0380103476652324e-06 3.144220258564037 0 0 0
63 1 20.43743738972315 1.5721096102768446 4.716330906851228 0 0 0
64 1 -1.0380103477160264e-06 3.144220258564037 3.144220258564037 0 0 0
65 1 1.5721096102768446 4.716330906851229 4.716330906851228 0 0 0
66 1 3.1442202585640366 3.144220258564037 3.144220258564037 0 0 0
67 1 4.716330906851229 4.716330906851229 4.716330906851228 0 0 0
68 1 6.288441555138421 3.144220258564037 3.144220258564037 0 0 0
69 1 7.860552203425612 4.716330906851229 4.716330906851228 0 0 0
70 1 9.432662851712806 3.144220258564037 3.144220258564037 0 0 0
71 1 11.004773499999997 4.716330906851229 4.716330906851228 0 0 0
72 1 12.57688414828719 3.144220258564037 3.144220258564037 0 0 0
73 1 14.14899479657438 4.716330906851229 4.716330906851228 0 0 0
74 1 15.721105444861571 3.144220258564037 3.144220258564037 0 0 0
75 1 17.293216093148768 4.716330906851229 4.716330906851228 0 0 0
76 1 18.86532674143596 3.144220258564037 3.144220258564037 0 0 0
77 1 20.43743738972315 4.716330906851229 4.716330906851228 0 0 0
78 1 -1.0380103477160698e-06 6.288441555138421 3.144220258564037 0 0 0
79 1 1.5721096102768446 7.860552203425612 4.716330906851228 0 0 0
80 1 3.1442202585640366 6.288441555138421 3.144220258564037 0 0 0
81 1 4.716330906851229 7.860552203425612 4.716330906851228 0 0 0
82 1 6.288441555138421 6.288441555138421 3.144220258564037 0 0 0
83 1 7.860552203425612 7.860552203425612 4.716330906851228 0 0 0
84 1 9.432662851712806 6.288441555138421 3.144220258564037 0 0 0
85 1 11.004773499999997 7.860552203425612 4.716330906851228 0 0 0
86 1 12.57688414828719 6.288441555138421 3.144220258564037 0 0 0
87 1 14.14899479657438 7.860552203425612 4.716330906851228 0 0 0
88 1 15.721105444861571 6.288441555138421 3.144220258564037 0 0 0
89 1 17.293216093148768 7.860552203425612 4.716330906851228 0 0 0
90 1 18.86532674143596 6.288441555138421 3.144220258564037 0 0 0
91 1 20.43743738972315 7.860552203425612 4.716330906851228 0 0 0
92 1 -1.038010347716149e-06 9.432662851712806 3.144220258564037 0 0 0
93 1 3.1442202585640366 9.432662851712806 3.144220258564037 0 0 0
94 1 6.288441555138421 9.432662851712806 3.144220258564037 0 0 0
95 1 9.432662851712806 9.432662851712806 3.144220258564037 0 0 0
96 1 12.57688414828719 9.432662851712806 3.144220258564037 0 0 0
97 1 15.721105444861571 9.432662851712806 3.144220258564037 0 0 0
98 1 18.86532674143596 9.432662851712806 3.144220258564037 0 0 0
99 1 -1.038010347716107e-06 -1.0380103476652368e-06 6.288441555138422 0 0 0
100 1 3.1442202585640366 -1.0380103476651534e-06 6.288441555138422 0 0 0
101 1 6.288441555138421 -1.038010347665203e-06 6.288441555138422 0 0 0
102 1 9.432662851712806 -1.0380103476652482e-06 6.288441555138422 0 0 0
103 1 12.57688414828719 -1.0380103476652446e-06 6.288441555138422 0 0 0
104 1 15.721105444861571 -1.038010347665291e-06 6.288441555138422 0 0 0
105 1 18.86532674143596 -1.0380103476652482e-06 6.288441555138422 0 0 0
106 1 -1.0380103477160111e-06 3.144220258564037 6.288441555138422 0 0 0
107 1 3.1442202585640366 3.144220258564037 6.288441555138422 0 0 0
108 1 6.288441555138421 3.144220258564037 6.288441555138422 0 0 0
109 1 9.432662851712806 3.144220258564037 6.288441555138422 0 0 0
110 1 12.57688414828719 3.144220258564037 6.288441555138422 0 0 0
111 1 15.721105444861571 3.144220258564037 6.288441555138422 0 0 0
112 1 18.86532674143596 3.144220258564037 6.288441555138422 0 0 0
113 1 -1.03801034771601e-06 6.288441555138421 6.288441555138422 0 0 0
114 1 3.1442202585640366 6.288441555138421 6.288441555138422 0 0 0
115 1 6.288441555138421 6.288441555138421 6.288441555138422 0 0 0
116 1 9.432662851712806 6.288441555138421 6.288441555138422 0 0 0
117 1 12.57688414828719 6.288441555138421 6.288441555138422 0 0 0
118 1 15.721105444861571 6.288441555138421 6.288441555138422 0 0 0
119 1 18.86532674143596 6.288441555138421 6.288441555138422 0 0 0
120 1 -1.0380103477161094e-06 9.432662851712806 6.288441555138422 0 0 0
121 1 3.1442202585640366 9.432662851712806 6.288441555138422 0 0 0
122 1 6.288441555138421 9.432662851712806 6.288441555138422 0 0 0
123 1 9.432662851712806 9.432662851712806 6.288441555138422 0 0 0
124 1 12.57688414828719 9.432662851712806 6.288441555138422 0 0 0
125 1 15.721105444861571 9.432662851712806 6.288441555138422 0 0 0
126 1 18.86532674143596 9.432662851712806 6.288441555138422 0 0 0
127 1 1.5721096102768446 1.5721096102768446 7.860552203425612 0 0 0
128 1 4.716330906851229 1.5721096102768446 7.860552203425612 0 0 0
129 1 7.860552203425612 1.5721096102768446 7.860552203425612 0 0 0
130 1 11.004773499999997 1.5721096102768446 7.860552203425612 0 0 0
131 1 14.14899479657438 1.5721096102768446 7.860552203425612 0 0 0
132 1 17.293216093148768 1.5721096102768446 7.860552203425612 0 0 0
133 1 20.43743738972315 1.5721096102768446 7.860552203425612 0 0 0
134 1 1.5721096102768446 4.716330906851229 7.860552203425612 0 0 0
135 1 4.716330906851229 4.716330906851229 7.860552203425612 0 0 0
136 1 7.860552203425612 4.716330906851229 7.860552203425612 0 0 0
137 1 11.004773499999997 4.716330906851229 7.860552203425612 0 0 0
138 1 14.14899479657438 4.716330906851229 7.860552203425612 0 0 0
139 1 17.293216093148768 4.716330906851229 7.860552203425612 0 0 0
140 1 20.43743738972315 4.716330906851229 7.860552203425612 0 0 0
141 1 1.5721096102768446 7.860552203425612 7.860552203425612 0 0 0
142 1 4.716330906851229 7.860552203425612 7.860552203425612 0 0 0
143 1 7.860552203425612 7.860552203425612 7.860552203425612 0 0 0
144 1 11.004773499999997 7.860552203425612 7.860552203425612 0 0 0
145 1 14.14899479657438 7.860552203425612 7.860552203425612 0 0 0
146 1 17.293216093148768 7.860552203425612 7.860552203425612 0 0 0
147 1 20.43743738972315 7.860552203425612 7.860552203425612 0 0 0
148 1 -1.038010347716158e-06 -1.0380103476653346e-06 9.432662851712806 0 0 0
149 1 1.5721096102768446 1.5721096102768446 11.004773499999997 0 0 0
150 1 3.1442202585640366 -1.0380103476653344e-06 9.432662851712806 0 0 0
151 1 4.716330906851229 1.5721096102768446 11.004773499999997 0 0 0
152 1 6.288441555138421 -1.0380103476653266e-06 9.432662851712806 0 0 0
153 1 7.860552203425612 1.5721096102768446 11.004773499999997 0 0 0
154 1 9.432662851712806 -1.0380103476653226e-06 9.432662851712806 0 0 0
155 1 11.004773499999997 1.5721096102768446 11.004773499999997 0 0 0
156 1 12.57688414828719 -1.038010347665309e-06 9.432662851712806 0 0 0
157 1 14.14899479657438 1.5721096102768446 11.004773499999997 0 0 0
158 1 15.721105444861571 -1.0380103476653656e-06 9.432662851712806 0 0 0
159 1 17.293216093148768 1.5721096102768446 11.004773499999997 0 0 0
160 1 18.86532674143596 -1.0380103476653084e-06 9.432662851712806 0 0 0
161 1 20.43743738972315 1.5721096102768446 11.004773499999997 0 0 0
162 1 -1.0380103477161484e-06 3.144220258564037 9.432662851712806 0 0 0
163 1 1.5721096102768446 4.716330906851229 11.004773499999997 0 0 0
164 1 3.1442202585640366 3.144220258564037 9.432662851712806 0 0 0
165 1 4.716330906851229 4.716330906851229 11.004773499999997 0 0 0
166 1 6.288441555138421 3.144220258564037 9.432662851712806 0 0 0
167 1 7.860552203425612 4.716330906851229 11.004773499999997 0 0 0
168 1 9.432662851712806 3.144220258564037 9.432662851712806 0 0 0
169 1 11.004773499999997 4.716330906851229 11.004773499999997 0 0 0
170 1 12.57688414828719 3.144220258564037 9.432662851712806 0 0 0
171 1 14.14899479657438 4.716330906851229 11.004773499999997 0 0 0
172 1 15.721105444861571 3.144220258564037 9.432662851712806 0 0 0
173 1 17.293216093148768 4.716330906851229 11.004773499999997 0 0 0
174 1 18.86532674143596 3.144220258564037 9.432662851712806 0 0 0
175 1 20.43743738972315 4.716330906851229 11.004773499999997 0 0 0
176 1 -1.0380103477160944e-06 6.288441555138421 9.432662851712806 0 0 0
177 1 1.5721096102768446 7.860552203425612 11.004773499999997 0 0 0
178 1 3.1442202585640366 6.288441555138421 9.432662851712806 0 0 0
179 1 4.716330906851229 7.860552203425612 11.004773499999997 0 0 0
180 1 6.288441555138421 6.288441555138421 9.432662851712806 0 0 0
181 1 7.860552203425612 7.860552203425612 11.004773499999997 0 0 0
182 1 9.432662851712806 6.288441555138421 9.432662851712806 0 0 0
183 1 11.004773499999997 7.860552203425612 11.004773499999997 0 0 0
184 1 12.57688414828719 6.288441555138421 9.432662851712806 0 0 0
185 1 14.14899479657438 7.860552203425612 11.004773499999997 0 0 0
186 1 15.721105444861571 6.288441555138421 9.432662851712806 0 0 0
187 1 17.293216093148768 7.860552203425612 11.004773499999997 0 0 0
188 1 18.86532674143596 6.288441555138421 9.432662851712806 0 0 0
189 1 20.43743738972315 7.860552203425612 11.004773499999997 0 0 0
190 1 -1.0380103477161606e-06 9.432662851712806 9.432662851712806 0 0 0
191 1 3.1442202585640366 9.432662851712806 9.432662851712806 0 0 0
192 1 6.288441555138421 9.432662851712806 9.432662851712806 0 0 0
193 1 9.432662851712806 9.432662851712806 9.432662851712806 0 0 0
194 1 12.57688414828719 9.432662851712806 9.432662851712806 0 0 0
195 1 15.721105444861571 9.432662851712806 9.432662851712806 0 0 0
196 1 18.86532674143596 9.432662851712806 9.432662851712806 0 0 0
197 1 -1.0380103477161852e-06 -1.0380103476653535e-06 12.57688414828719 0 0 0
198 1 1.5721096102768446 1.5721096102768446 14.148994796574383 0 0 0
199 1 3.1442202585640366 -1.0380103476652855e-06 12.57688414828719 0 0 0
200 1 4.716330906851229 1.5721096102768446 14.148994796574383 0 0 0
201 1 6.288441555138421 -1.0380103476653018e-06 12.57688414828719 0 0 0
202 1 7.860552203425612 1.5721096102768446 14.148994796574383 0 0 0
203 1 9.432662851712806 -1.0380103476652944e-06 12.57688414828719 0 0 0
204 1 11.004773499999997 1.5721096102768446 14.148994796574383 0 0 0
205 1 12.57688414828719 -1.0380103476652885e-06 12.57688414828719 0 0 0
206 1 14.14899479657438 1.5721096102768446 14.148994796574383 0 0 0
207 1 15.721105444861571 -1.0380103476652923e-06 12.57688414828719 0 0 0
208 1 17.293216093148768 1.5721096102768446 14.148994796574383 0 0 0
209 1 18.86532674143596 -1.0380103476652974e-06 12.57688414828719 0 0 0
210 1 20.43743738972315 1.5721096102768446 14.148994796574383 0 0 0
211 1 -1.0380103477160647e-06 3.144220258564037 12.57688414828719 0 0 0
212 1 1.5721096102768446 4.716330906851229 14.148994796574383 0 0 0
213 1 3.1442202585640366 3.144220258564037 12.57688414828719 0 0 0
214 1 4.716330906851229 4.716330906851229 14.148994796574383 0 0 0
215 1 6.288441555138421 3.144220258564037 12.57688414828719 0 0 0
216 1 7.860552203425612 4.716330906851229 14.148994796574383 0 0 0
217 1 9.432662851712806 3.144220258564037 12.57688414828719 0 0 0
218 1 11.004773499999997 4.716330906851229 14.148994796574383 0 0 0
219 1 12.57688414828719 3.144220258564037 12.57688414828719 0 0 0
220 1 14.14899479657438 4.716330906851229 14.148994796574383 0 0 0
221 1 15.721105444861571 3.144220258564037 12.57688414828719 0 0 0
222 1 17.293216093148768 4.716330906851229 14.148994796574383 0 0 0
223 1 18.86532674143596 3.144220258564037 12.57688414828719 0 0 0
224 1 20.43743738972315 4.716330906851229 14.148994796574383 0 0 0
225 1 -1.0380103477161365e-06 6.288441555138421 12.57688414828719 0 0 0
226 1 1.5721096102768446 7.860552203425612 14.148994796574383 0 0 0
227 1 3.1442202585640366 6.288441555138421 12.57688414828719 0 0 0
228 1 4.716330906851229 7.860552203425612 14.148994796574383 0 0 0
229 1 6.288441555138421 6.288441555138421 12.57688414828719 0 0 0
230 1 7.860552203425612 7.860552203425612 14.148994796574383 0 0 0
231 1 9.432662851712806 6.288441555138421 12.57688414828719 0 0 0
232 1 11.004773499999997 7.860552203425612 14.148994796574383 0 0 0
233 1 12.57688414828719 6.288441555138421 12.57688414828719 0 0 0
234 1 14.14899479657438 7.860552203425612 14.148994796574383 0 0 0
235 1 15.721105444861571 6.288441555138421 12.57688414828719 0 0 0
236 1 17.293216093148768 7.860552203425612 14.148994796574383 0 0 0
237 1 18.86532674143596 6.288441555138421 12.57688414828719 0 0 0
238 1 20.43743738972315 7.860552203425612 14.148994796574383 0 0 0
239 1 -1.0380103477161835e-06 9.432662851712806 12.57688414828719 0 0 0
240 1 3.1442202585640366 9.432662851712806 12.57688414828719 0 0 0
241 1 6.288441555138421 9.432662851712806 12.57688414828719 0 0 0
242 1 9.432662851712806 9.432662851712806 12.57688414828719 0 0 0
243 1 12.57688414828719 9.432662851712806 12.57688414828719 0 0 0
244 1 15.721105444861571 9.432662851712806 12.57688414828719 0 0 0
245 1 18.86532674143596 9.432662851712806 12.57688414828719 0 0 0
246 1 -1.0380103477161526e-06 -1.03801034766532e-06 15.721105444861575 0 0 0
247 1 1.5721096102768446 1.5721096102768446 17.293216093148764 0 0 0
248 1 3.1442202585640366 -1.038010347665377e-06 15.721105444861575 0 0 0
249 1 4.716330906851229 1.5721096102768446 17.293216093148764 0 0 0
250 1 6.288441555138421 -1.0380103476653567e-06 15.721105444861575 0 0 0
251 1 7.860552203425612 1.5721096102768446 17.293216093148764 0 0 0
252 1 9.432662851712806 -1.0380103476653365e-06 15.721105444861575 0 0 0
253 1 11.004773499999997 1.5721096102768446 17.293216093148764 0 0 0
254 1 12.57688414828719 -1.0380103476652868e-06 15.721105444861575 0 0 0
255 1 14.14899479657438 1.5721096102768446 17.293216093148764 0 0 0
256 1 15.721105444861571 -1.0380103476653473e-06 15.721105444861575 0 0 0
257 1 17.293216093148768 1.5721096102768446 17.293216093148764 0 0 0
258 1 18.86532674143596 -1.0380103476653e-06 15.721105444861575 0 0 0
259 1 20.43743738972315 1.5721096102768446 17.293216093148764 0 0 0
260 1 -1.0380103477162096e-06 3.144220258564037 15.721105444861575 0 0 0
261 1 1.5721096102768446 4.716330906851229 17.293216093148764 0 0 0
262 1 3.1442202585640366 3.144220258564037 15.721105444861575 0 0 0
263 1 4.716330906851229 4.716330906851229 17.293216093148764 0 0 0
264 1 6.288441555138421 3.144220258564037 15.721105444861575 0 0 0
265 1 7.860552203425612 4.716330906851229 17.293216093148764 0 0 0
266 1 9.432662851712806 3.144220258564037 15.721105444861575 0 0 0
267 1 11.004773499999997 4.716330906851229 17.293216093148764 0 0 0
268 1 12.57688414828719 3.144220258564037 15.721105444861575 0 0 0
269 1 14.14899479657438 4.716330906851229 17.293216093148764 0 0 0
270 1 15.721105444861571 3.144220258564037 15.721105444861575 0 0 0
271 1 17.293216093148768 4.716330906851229 17.293216093148764 0 0 0
272 1 18.86532674143596 3.144220258564037 15.721105444861575 0 0 0
273 1 20.43743738972315 4.716330906851229 17.293216093148764 0 0 0
274 1 -1.0380103477161691e-06 6.288441555138421 15.721105444861575 0 0 0
275 1 1.5721096102768446 7.860552203425612 17.293216093148764 0 0 0
276 1 3.1442202585640366 6.288441555138421 15.721105444861575 0 0 0
277 1 4.716330906851229 7.860552203425612 17.293216093148764 0 0 0
278 1 6.288441555138421 6.288441555138421 15.721105444861575 0 0 0
279 1 7.860552203425612 7.860552203425612 17.293216093148764 0 0 0
280 1 9.432662851712806 6.288441555138421 15.721105444861575 0 0 0
281 1 11.004773499999997 7.860552203425612 17.293216093148764 0 0 0
282 1 12.57688414828719 6.288441555138421 15.721105444861575 0 0 0
283 1 14.14899479657438 7.860552203425612 17.293216093148764 0 0 0
284 1 15.721105444861571 6.288441555138421 15.721105444861575 0 0 0
285 1 17.293216093148768 7.860552203425612 17.293216093148764 0 0 0
286 1 18.86532674143596 6.288441555138421 15.721105444861575 0 0 0
287 1 20.43743738972315 7.860552203425612 17.293216093148764 0 0 0
288 1 -1.038010347716164e-06 9.432662851712806 15.721105444861575 0 0 0
289 1 3.1442202585640366 9.432662851712806 15.721105444861575 0 0 0
290 1 6.288441555138421 9.432662851712806 15.721105444861575 0 0 0
291 1 9.432662851712806 9.432662851712806 15.721105444861575 0 0 0
292 1 12.57688414828719 9.432662851712806 15.721105444861575 0 0 0
293 1 15.721105444861571 9.432662851712806 15.721105444861575 0 0 0
294 1 18.86532674143596 9.432662851712806 15.721105444861575 0 0 0
295 1 -1.0380103477162055e-06 -1.0380103476653838e-06 18.865326741435954 0 0 0
296 1 1.5721096102768446 1.5721096102768446 20.437437389723154 0 0 0
297 1 3.1442202585640366 -1.0380103476653293e-06 18.865326741435954 0 0 0
298 1 4.716330906851229 1.5721096102768446 20.437437389723154 0 0 0
299 1 6.288441555138421 -1.038010347665322e-06 18.865326741435954 0 0 0
300 1 7.860552203425612 1.5721096102768446 20.437437389723154 0 0 0
301 1 9.432662851712806 -1.0380103476652853e-06 18.865326741435954 0 0 0
302 1 11.004773499999997 1.5721096102768446 20.437437389723154 0 0 0
303 1 12.57688414828719 -1.0380103476652868e-06 18.865326741435954 0 0 0
304 1 14.14899479657438 1.5721096102768446 20.437437389723154 0 0 0
305 1 15.721105444861571 -1.0380103476652982e-06 18.865326741435954 0 0 0
306 1 17.293216093148768 1.5721096102768446 20.437437389723154 0 0 0
307 1 18.86532674143596 -1.0380103476653067e-06 18.865326741435954 0 0 0
308 1 20.43743738972315 1.5721096102768446 20.437437389723154 0 0 0
309 1 -1.0380103477161378e-06 3.144220258564037 18.865326741435954 0 0 0
310 1 1.5721096102768446 4.716330906851229 20.437437389723154 0 0 0
311 1 3.1442202585640366 3.144220258564037 18.865326741435954 0 0 0
312 1 4.716330906851229 4.716330906851229 20.437437389723154 0 0 0
313 1 6.288441555138421 3.144220258564037 18.865326741435954 0 0 0
314 1 7.860552203425612 4.716330906851229 20.437437389723154 0 0 0
315 1 9.432662851712806 3.144220258564037 18.865326741435954 0 0 0
316 1 11.004773499999997 4.716330906851229 20.437437389723154 0 0 0
317 1 12.57688414828719 3.144220258564037 18.865326741435954 0 0 0
318 1 14.14899479657438 4.716330906851229 20.437437389723154 0 0 0
319 1 15.721105444861571 3.144220258564037 18.865326741435954 0 0 0
320 1 17.293216093148768 4.716330906851229 20.437437389723154 0 0 0
321 1 18.86532674143596 3.144220258564037 18.865326741435954 0 0 0
322 1 20.43743738972315 4.716330906851229 20.437437389723154 0 0 0
323 1 -1.0380103477161244e-06 6.288441555138421 18.865326741435954 0 0 0
324 1 1.5721096102768446 7.860552203425612 20.437437389723154 0 0 0
325 1 3.1442202585640366 6.288441555138421 18.865326741435954 0 0 0
326 1 4.716330906851229 7.860552203425612 20.437437389723154 0 0 0
327 1 6.288441555138421 6.288441555138421 18.865326741435954 0 0 0
328 1 7.860552203425612 7.860552203425612 20.437437389723154 0 0 0
329 1 9.432662851712806 6.288441555138421 18.865326741435954 0 0 0
330 1 11.004773499999997 7.860552203425612 20.437437389723154 0 0 0
331 1 12.57688414828719 6.288441555138421 18.865326741435954 0 0 0
332 1 14.14899479657438 7.860552203425612 20.437437389723154 0 0 0
333 1 15.721105444861571 6.288441555138421 18.865326741435954 0 0 0
334 1 17.293216093148768 7.860552203425612 20.437437389723154 0 0 0
335 1 18.86532674143596 6.288441555138421 18.865326741435954 0 0 0
336 1 20.43743738972315 7.860552203425612 20.437437389723154 0 0 0
337 1 -1.0380103477161172e-06 9.432662851712806 18.865326741435954 0 0 0
338 1 3.1442202585640366 9.432662851712806 18.865326741435954 0 0 0
339 1 6.288441555138421 9.432662851712806 18.865326741435954 0 0 0
340 1 9.432662851712806 9.432662851712806 18.865326741435954 0 0 0
341 1 12.57688414828719 9.432662851712806 18.865326741435954 0 0 0
342 1 15.721105444861571 9.432662851712806 18.865326741435954 0 0 0
343 1 18.86532674143596 9.432662851712806 18.865326741435954 0 0 0
344 1 1.5721096102768446 11.004773499999997 1.5721096102768446 0 0 0
345 1 4.716330906851229 11.004773499999997 1.5721096102768446 0 0 0
346 1 7.860552203425612 11.004773499999997 1.5721096102768446 0 0 0
347 1 11.004773499999997 11.004773499999997 1.5721096102768446 0 0 0
348 1 14.14899479657438 11.004773499999997 1.5721096102768446 0 0 0
349 1 17.293216093148768 11.004773499999997 1.5721096102768446 0 0 0
350 1 20.43743738972315 11.004773499999997 1.5721096102768446 0 0 0
351 1 -1.0380103477161058e-06 12.57688414828719 -1.0380103477595137e-06 0 0 0
352 1 1.5721096102768446 14.14899479657438 1.5721096102768446 0 0 0
353 1 3.1442202585640366 12.57688414828719 -1.0380103477595556e-06 0 0 0
354 1 4.716330906851229 14.14899479657438 1.5721096102768446 0 0 0
355 1 6.288441555138421 12.57688414828719 -1.0380103477594603e-06 0 0 0
356 1 7.860552203425612 14.14899479657438 1.5721096102768446 0 0 0
357 1 9.432662851712806 12.57688414828719 -1.038010347759486e-06 0 0 0
358 1 11.004773499999997 14.14899479657438 1.5721096102768446 0 0 0
359 1 12.57688414828719 12.57688414828719 -1.0380103477595192e-06 0 0 0
360 1 14.14899479657438 14.14899479657438 1.5721096102768446 0 0 0
361 1 15.721105444861571 12.57688414828719 -1.0380103477594898e-06 0 0 0
362 1 17.293216093148768 14.14899479657438 1.5721096102768446 0 0 0
363 1 18.86532674143596 12.57688414828719 -1.0380103477595148e-06 0 0 0
364 1 20.43743738972315 14.14899479657438 1.5721096102768446 0 0 0
365 1 -1.038010347716177e-06 15.721105444861571 -1.0380103477594944e-06 0 0 0
366 1 1.5721096102768446 17.293216093148768 1.5721096102768446 0 0 0
367 1 3.1442202585640366 15.721105444861571 -1.0380103477595446e-06 0 0 0
368 1 4.716330906851229 17.293216093148768 1.5721096102768446 0 0 0
369 1 6.288441555138421 15.721105444861571 -1.0380103477594582e-06 0 0 0
370 1 7.860552203425612 17.293216093148768 1.5721096102768446 0 0 0
371 1 9.432662851712806 15.721105444861571 -1.0380103477594781e-06 0 0 0
372 1 11.004773499999997 17.293216093148768 1.5721096102768446 0 0 0
373 1 12.57688414828719 15.721105444861571 -1.0380103477594002e-06 0 0 0
374 1 14.14899479657438 17.293216093148768 1.5721096102768446 0 0 0
375 1 15.721105444861571 15.721105444861571 -1.0380103477594544e-06 0 0 0
376 1 17.293216093148768 17.293216093148768 1.5721096102768446 0 0 0
377 1 18.86532674143596 15.721105444861571 -1.0380103477594123e-06 0 0 0
378 1 20.43743738972315 17.293216093148768 1.5721096102768446 0 0 0
379 1 -1.0380103477161003e-06 18.86532674143596 -1.0380103477595213e-06 0 0 0
380 1 1.5721096102768446 20.43743738972315 1.5721096102768446 0 0 0
381 1 3.1442202585640366 18.86532674143596 -1.0380103477595734e-06 0 0 0
382 1 4.716330906851229 20.43743738972315 1.5721096102768446 0 0 0
383 1 6.288441555138421 18.86532674143596 -1.0380103477594688e-06 0 0 0
384 1 7.860552203425612 20.43743738972315 1.5721096102768446 0 0 0
385 1 9.432662851712806 18.86532674143596 -1.038010347759489e-06 0 0 0
386 1 11.004773499999997 20.43743738972315 1.5721096102768446 0 0 0
387 1 12.57688414828719 18.86532674143596 -1.0380103477595126e-06 0 0 0
388 1 14.14899479657438 20.43743738972315 1.5721096102768446 0 0 0
389 1 15.721105444861571 18.86532674143596 -1.038010347759493e-06 0 0 0
390 1 17.293216093148768 20.43743738972315 1.5721096102768446 0 0 0
391 1 18.86532674143596 18.86532674143596 -1.038010347759527e-06 0 0 0
392 1 20.43743738972315 20.43743738972315 1.5721096102768446 0 0 0
393 1 1.5721096102768446 11.004773499999997 4.716330906851228 0 0 0
394 1 4.716330906851229 11.004773499999997 4.716330906851228 0 0 0
395 1 7.860552203425612 11.004773499999997 4.716330906851228 0 0 0
396 1 11.004773499999997 11.004773499999997 4.716330906851228 0 0 0
397 1 14.14899479657438 11.004773499999997 4.716330906851228 0 0 0
398 1 17.293216093148768 11.004773499999997 4.716330906851228 0 0 0
399 1 20.43743738972315 11.004773499999997 4.716330906851228 0 0 0
400 1 -1.0380103477160749e-06 12.57688414828719 3.144220258564037 0 0 0
401 1 1.5721096102768446 14.14899479657438 4.716330906851228 0 0 0
402 1 3.1442202585640366 12.57688414828719 3.144220258564037 0 0 0
403 1 4.716330906851229 14.14899479657438 4.716330906851228 0 0 0
404 1 6.288441555138421 12.57688414828719 3.144220258564037 0 0 0
405 1 7.860552203425612 14.14899479657438 4.716330906851228 0 0 0
406 1 9.432662851712806 12.57688414828719 3.144220258564037 0 0 0
407 1 11.004773499999997 14.14899479657438 4.716330906851228 0 0 0
408 1 12.57688414828719 12.57688414828719 3.144220258564037 0 0 0
409 1 14.14899479657438 14.14899479657438 4.716330906851228 0 0 0
410 1 15.721105444861571 12.57688414828719 3.144220258564037 0 0 0
411 1 17.293216093148768 14.14899479657438 4.716330906851228 0 0 0
412 1 18.86532674143596 12.57688414828719 3.144220258564037 0 0 0
413 1 20.43743738972315 14.14899479657438 4.716330906851228 0 0 0
414 1 -1.0380103477162074e-06 15.721105444861571 3.144220258564037 0 0 0
415 1 1.5721096102768446 17.293216093148768 4.716330906851228 0 0 0
416 1 3.1442202585640366 15.721105444861571 3.144220258564037 0 0 0
417 1 4.716330906851229 17.293216093148768 4.716330906851228 0 0 0
418 1 6.288441555138421 15.721105444861571 3.144220258564037 0 0 0
419 1 7.860552203425612 17.293216093148768 4.716330906851228 0 0 0
420 1 9.432662851712806 15.721105444861571 3.144220258564037 0 0 0
421 1 11.004773499999997 17.293216093148768 4.716330906851228 0 0 0
422 1 12.57688414828719 15.721105444861571 3.144220258564037 0 0 0
423 1 14.14899479657438 17.293216093148768 4.716330906851228 0 0 0
424 1 15.721105444861571 15.721105444861571 3.144220258564037 0 0 0
425 1 17.293216093148768 17.293216093148768 4.716330906851228 0 0 0
426 1 18.86532674143596 15.721105444861571 3.144220258564037 0 0 0
427 1 20.43743738972315 17.293216093148768 4.716330906851228 0 0 0
428 1 -1.0380103477160764e-06 18.86532674143596 3.144220258564037 0 0 0
429 1 1.5721096102768446 20.43743738972315 4.716330906851228 0 0 0
430 1 3.1442202585640366 18.86532674143596 3.144220258564037 0 0 0
431 1 4.716330906851229 20.43743738972315 4.716330906851228 0 0 0
432 1 6.288441555138421 18.86532674143596 3.144220258564037 0 0 0
433 1 7.860552203425612 20.43743738972315 4.716330906851228 0 0 0