LAMMPS data file via write_data, version 2 Aug 2023, timestep = 4, units = metal

1024 atoms
3 atom types

-1.186297513201194e-06 25.15376918629751 xlo xhi
-1.1862975129759137e-06 25.153769186297513 ylo yhi
-1.1862975129245503e-06 25.153769186297513 zlo zhi

Masses

1 183.84
2 1.008
3 4.0026

Atoms # atomic

1 1 -1.1862975122157711e-06 -1.1862975116723152e-06 -1.1862975117957565e-06 0 0 0
2 1 1.5721094619896754 1.5721094619896758 1.5721094619896756 0 0 0
3 1 3.144220110276864 -1.1862975116722997e-06 -1.1862975117957453e-06 0 0 0
4 1 4.716330758564053 1.5721094619896758 1.5721094619896756 0 0 0
5 1 6.28844140685124 -1.1862975116723332e-06 -1.1862975117957143e-06 0 0 0
6 1 7.860552055138431 1.5721094619896758 1.5721094619896756 0 0 0
7 1 9.432662703425619 -1.186297511672321e-06 -1.1862975117957283e-06 0 0 0
8 1 11.004773351712805 1.5721094619896758 1.5721094619896756 0 0 0
9 1 12.576883999999994 -1.1862975116723084e-06 -1.186297511795709e-06 0 0 0
10 1 14.148994648287188 1.5721094619896758 1.5721094619896756 0 0 0
11 1 15.721105296574375 -1.186297511672327e-06 -1.1862975117956936e-06 0 0 0
12 1 17.29321594486156 1.5721094619896758 1.5721094619896756 0 0 0
13 1 18.86532659314875 -1.186297511672306e-06 -1.1862975117956832e-06 0 0 0
14 1 20.43743724143594 1.5721094619896758 1.5721094619896756 0 0 0
15 1 22.009547889723123 -1.186297511672332e-06 -1.18629751179576e-06 0 0 0
16 1 23.581658538010316 1.5721094619896758 1.5721094619896756 0 0 0
17 1 -1.1862975122157224e-06 3.1442201102768643 -1.1862975117957501e-06 0 0 0
18 1 1.5721094619896754 4.716330758564054 1.5721094619896756 0 0 0
19 1 3.144220110276864 3.1442201102768643 -1.1862975117957107e-06 0 0 0
20 1 4.716330758564053 4.716330758564054 1.5721094619896756 0 0 0
21 1 6.28844140685124 3.1442201102768643 -1.1862975117957414e-06 0 0 0
22 1 7.860552055138431 4.716330758564054 1.5721094619896756 0 0 0
23 1 9.432662703425619 3.1442201102768643 -1.1862975117957133e-06 0 0 0
24 1 11.004773351712805 4.716330758564054 1.5721094619896756 0 0 0
25 1 12.576883999999994 3.1442201102768643 -1.186297511795733e-06 0 0 0
26 1 14.148994648287188 4.716330758564054 1.5721094619896756 0 0 0
27 1 15.721105296574375 3.1442201102768643 -1.1862975117957292e-06 0 0 0
28 1 17.29321594486156 4.716330758564054 1.5721094619896756 0 0 0
29 1 18.86532659314875 3.1442201102768643 -1.1862975117957565e-06 0 0 0
30 1 20.43743724143594 4.716330758564054 1.5721094619896756 0 0 0
31 1 22.009547889723123 3.1442201102768643 -1.186297511795722e-06 0 0 0
32 1 23.581658538010316 4.716330758564054 1.5721094619896756 0 0 0
33 1 -1.1862975122157737e-06 6.288441406851242 -1.1862975117957726e-06 0 0 0
34 1 1.5721094619896754 7.860552055138434 1.5721094619896756 0 0 0
35 1 3.144220110276864 6.288441406851242 -1.1862975117957095e-06 0 0 0
36 1 4.716330758564053 7.860552055138434 1.5721094619896756 0 0 0
37 1 6.28844140685124 6.288441406851242 -1.186297511795764e-06 0 0 0
38 1 7.860552055138431 7.860552055138434 1.5721094619896756 0 0 0
39 1 9.432662703425619 6.288441406851242 -1.1862975117957169e-06 0 0 0
40 1 11.004773351712805 7.860552055138434 1.5721094619896756 0 0 0
41 1 12.576883999999994 6.288441406851242 -1.1862975117957169e-06 0 0 0
42 1 14.148994648287188 7.860552055138434 1.5721094619896756 0 0 0
43 1 15.721105296574375 6.288441406851242 -1.1862975117957626e-06 0 0 0
44 1 17.29321594486156 7.860552055138434 1.5721094619896756 0 0 0
45 1 18.86532659314875 6.288441406851242 -1.1862975117957256e-06 0 0 0
46 1 20.43743724143594 7.860552055138434 1.5721094619896756 0 0 0
47 1 22.009547889723123 6.288441406851242 -1.1862975117957383e-06 0 0 0
48 1 23.581658538010316 7.860552055138434 1.5721094619896756 0 0 0
49 1 -1.1862975122157086e-06 9.43266270342562 -1.1862975117957633e-06 0 0 0
50 1 1.5721094619896754 11.004773351712807 1.5721094619896756 0 0 0
51 1 3.144220110276864 9.43266270342562 -1.1862975117957133e-06 0 0 0
52 1 4.716330758564053 11.004773351712807 1.5721094619896756 0 0 0
53 1 6.28844140685124 9.43266270342562 -1.1862975117957256e-06 0 0 0
54 1 7.860552055138431 11.004773351712807 1.5721094619896756 0 0 0
55 1 9.432662703425619 9.43266270342562 -1.1862975117957503e-06 0 0 0
56 1 11.004773351712805 11.004773351712807 1.5721094619896756 0 0 0
57 1 12.576883999999994 9.43266270342562 -1.1862975117957256e-06 0 0 0
58 1 14.148994648287188 11.004773351712807 1.5721094619896756 0 0 0
59 1 15.721105296574375 9.43266270342562 -1.186297511795728e-06 0 0 0
60 1 17.29321594486156 11.004773351712807 1.5721094619896756 0 0 0
61 1 18.86532659314875 9.43266270342562 -1.1862975117957552e-06 0 0 0
62 1 20.43743724143594 11.004773351712807 1.5721094619896756 0 0 0
63 1 22.009547889723123 9.43266270342562 -1.1862975117957294e-06 0 0 0
64 1 23.581658538010316 11.004773351712807 1.5721094619896756 0 0 0
65 1 -1.1862975122157453e-06 12.576883999999996 -1.1862975117957635e-06 0 0 0
66 1 1.5721094619896754 14.14899464828719 1.5721094619896756 0 0 0
67 1 3.144220110276864 12.576883999999996 -1.1862975117957292e-06 0 0 0
68 1 4.716330758564053 14.14899464828719 1.5721094619896756 0 0 0
69 1 6.28844140685124 12.576883999999996 -1.186297511795723e-06 0 0 0
70 1 7.860552055138431 14.14899464828719 1.5721094619896756 0 0 0
71 1 9.432662703425619 12.576883999999996 -1.186297511795712e-06 0 0 0
72 1 11.004773351712805 14.14899464828719 1.5721094619896756 0 0 0
73 1 12.576883999999994 12.576883999999996 -1.1862975117957107e-06 0 0 0
74 1 14.148994648287188 14.14899464828719 1.5721094619896756 0 0 0
75 1 15.721105296574375 12.576883999999996 -1.1862975117957182e-06 0 0 0
76 1 17.29321594486156 14.14899464828719 1.5721094619896756 0 0 0
77 1 18.86532659314875 12.576883999999996 -1.1862975117957182e-06 0 0 0
78 1 20.43743724143594 14.14899464828719 1.5721094619896756 0 0 0
79 1 22.009547889723123 12.576883999999996 -1.1862975117957336e-06 0 0 0
80 1 23.581658538010316 14.14899464828719 1.5721094619896756 0 0 0
81 1 -1.1862975122157512e-06 15.721105296574379 -1.186297511795733e-06 0 0 0
82 1 1.5721094619896754 17.29321594486156 1.5721094619896756 0 0 0
83 1 3.144220110276864 15.721105296574379 -1.1862975117957478e-06 0 0 0
84 1 4.716330758564053 17.29321594486156 1.5721094619896756 0 0 0
85 1 6.28844140685124 15.721105296574379 -1.1862975117957317e-06 0 0 0
86 1 7.860552055138431 17.29321594486156 1.5721094619896756 0 0 0
87 1 9.432662703425619 15.721105296574379 -1.1862975117957565e-06 0 0 0
88 1 11.004773351712805 17.29321594486156 1.5721094619896756 0 0 0
89 1 12.576883999999994 15.721105296574379 -1.186297511795712e-06 0 0 0
90 1 14.148994648287188 17.29321594486156 1.5721094619896756 0 0 0
91 1 15.721105296574375 15.721105296574379 -1.1862975117957071e-06 0 0 0
92 1 17.29321594486156 17.29321594486156 1.5721094619896756 0 0 0
93 1 18.86532659314875 15.721105296574379 -1.1862975117957243e-06 0 0 0
94 1 20.43743724143594 17.29321594486156 1.5721094619896756 0 0 0
95 1 22.009547889723123 15.721105296574379 -1.1862975117957268e-06 0 0 0
96 1 23.581658538010316 17.29321594486156 1.5721094619896756 0 0 0
97 1 -1.186297512215744e-06 18.865326593148755 -1.1862975117957664e-06 0 0 0
98 1 1.5721094619896754 20.437437241435944 1.5721094619896756 0 0 0
99 1 3.144220110276864 18.865326593148755 -1.1862975117957353e-06 0 0 0
100 1 4.716330758564053 20.437437241435944 1.5721094619896756 0 0 0
101 1 6.28844140685124 18.865326593148755 -1.1862975117957294e-06 0 0 0
102 1 7.860552055138431 20.437437241435944 1.5721094619896756 0 0 0
103 1 9.432662703425619 18.865326593148755 -1.1862975117957169e-06 0 0 0
104 1 11.004773351712805 20.437437241435944 1.5721094619896756 0 0 0
105 1 12.576883999999994 18.865326593148755 -1.1862975117957218e-06 0 0 0
106 1 14.148994648287188 20.437437241435944 1.5721094619896756 0 0 0
107 1 15.721105296574375 18.865326593148755 -1.1862975117957281e-06 0 0 0
108 1 17.29321594486156 20.437437241435944 1.5721094619896756 0 0 0
109 1 18.86532659314875 18.865326593148755 -1.1862975117957268e-06 0 0 0
110 1 20.43743724143594 20.437437241435944 1.5721094619896756 0 0 0
111 1 22.009547889723123 18.865326593148755 -1.1862975117957395e-06 0 0 0
112 1 23.581658538010316 20.437437241435944 1.5721094619896756 0 0 0
113 1 -1.1862975122157861e-06 22.009547889723127 -1.1862975117957592e-06 0 0 0
114 1 1.5721094619896754 23.58165853801032 1.5721094619896756 0 0 0
115 1 3.144220110276864 22.009547889723127 -1.1862975117957074e-06 0 0 0
116 1 4.716330758564053 23.58165853801032 1.5721094619896756 0 0 0
117 1 6.28844140685124 22.009547889723127 -1.1862975117957567e-06 0 0 0
118 1 7.860552055138431 23.58165853801032 1.5721094619896756 0 0 0
119 1 9.432662703425619 22.009547889723127 -1.186297511795707e-06 0 0 0
120 1 11.004773351712805 23.58165853801032 1.5721094619896756 0 0 0
121 1 12.576883999999994 22.009547889723127 -1.1862975117957362e-06 0 0 0
122 1 14.148994648287188 23.58165853801032 1.5721094619896756 0 0 0
123 1 15.721105296574375 22.009547889723127 -1.1862975117957404e-06 0 0 0
124 1 17.29321594486156 23.58165853801032 1.5721094619896756 0 0 0
125 1 18.86532659314875 22.009547889723127 -1.1862975117957603e-06 0 0 0
126 1 20.43743724143594 23.58165853801032 1.5721094619896756 0 0 0
127 1 22.009547889723123 22.009547889723127 -1.1862975117957277e-06 0 0 0
128 1 23.581658538010316 23.58165853801032 1.5721094619896756 0 0 0
129 1 -1.1862975122157576e-06 -1.186297511672267e-06 3.144220110276865 0 0 0
130 1 1.5721094619896754 1.5721094619896758 4.7163307585640535 0 0 0
131 1 3.144220110276864 -1.1862975116722565e-06 3.144220110276865 0 0 0
132 1 4.716330758564053 1.5721094619896758 4.7163307585640535 0 0 0
133 1 6.28844140685124 -1.1862975116722633e-06 3.144220110276865 0 0 0
134 1 7.860552055138431 1.5721094619896758 4.7163307585640535 0 0 0
135 1 9.432662703425619 -1.1862975116722735e-06 3.144220110276865 0 0 0
136 1 11.004773351712805 1.5721094619896758 4.7163307585640535 0 0 0
137 1 12.576883999999994 -1.1862975116722885e-06 3.144220110276865 0 0 0
138 1 14.148994648287188 1.5721094619896758 4.7163307585640535 0 0 0
139 1 15.721105296574375 -1.1862975116722845e-06 3.144220110276865 0 0 0
140 1 17.29321594486156 1.5721094619896758 4.7163307585640535 0 0 0
141 1 18.86532659314875 -1.186297511672305e-06 3.144220110276865 0 0 0
142 1 20.43743724143594 1.5721094619896758 4.7163307585640535 0 0 0
143 1 22.009547889723123 -1.1862975116722792e-06 3.144220110276865 0 0 0
144 1 23.581658538010316 1.5721094619896758 4.7163307585640535 0 0 0
145 1 -1.1862975122157383e-06 3.1442201102768643 3.144220110276865 0 0 0
146 1 1.5721094619896754 4.716330758564054 4.7163307585640535 0 0 0
147 1 3.144220110276864 3.1442201102768643 3.144220110276865 0 0 0
148 1 4.716330758564053 4.716330758564054 4.7163307585640535 0 0 0
149 1 6.28844140685124 3.1442201102768643 3.144220110276865 0 0 0
150 1 7.860552055138431 4.716330758564054 4.7163307585640535 0 0 0
151 1 9.432662703425619 3.1442201102768643 3.144220110276865 0 0 0
152 1 11.004773351712805 4.716330758564054 4.7163307585640535 0 0 0
153 1 12.576883999999994 3.1442201102768643 3.144220110276865 0 0 0
154 1 14.148994648287188 4.716330758564054 4.7163307585640535 0 0 0
155 1 15.721105296574375 3.1442201102768643 3.144220110276865 0 0 0
156 1 17.29321594486156 4.716330758564054 4.7163307585640535 0 0 0
157 1 18.86532659314875 3.1442201102768643 3.144220110276865 0 0 0
158 1 20.43743724143594 4.716330758564054 4.7163307585640535 0 0 0
159 1 22.009547889723123 3.1442201102768643 3.144220110276865 0 0 0
160 1 23.581658538010316 4.716330758564054 4.7163307585640535 0 0 0
161 1 -1.1862975122157495e-06 6.288441406851242 3.144220110276865 0 0 0
162 1 1.5721094619896754 7.860552055138434 4.7163307585640535 0 0 0
163 1 3.144220110276864 6.288441406851242 3.144220110276865 0 0 0
164 1 4.716330758564053 7.860552055138434 4.7163307585640535 0 0 0
165 1 6.28844140685124 6.288441406851242 3.144220110276865 0 0 0
166 1 7.860552055138431 7.860552055138434 4.7163307585640535 0 0 0
167 1 9.432662703425619 6.288441406851242 3.144220110276865 0 0 0
168 1 11.004773351712805 7.860552055138434 4.7163307585640535 0 0 0
169 1 12.576883999999994 6.288441406851242 3.144220110276865 0 0 0
170 1 14.148994648287188 7.860552055138434 4.7163307585640535 0 0 0
171 1 15.721105296574375 6.288441406851242 3.144220110276865 0 0 0
172 1 17.29321594486156 7.860552055138434 4.7163307585640535 0 0 0
173 1 18.86532659314875 6.288441406851242 3.144220110276865 0 0 0
174 1 20.43743724143594 7.860552055138434 4.7163307585640535 0 0 0
175 1 22.009547889723123 6.288441406851242 3.144220110276865 0 0 0
176 1 23.581658538010316 7.860552055138434 4.7163307585640535 0 0 0
177 1 -1.1862975122157525e-06 9.43266270342562 3.144220110276865 0 0 0
178 1 1.5721094619896754 11.004773351712807 4.7163307585640535 0 0 0
179 1 3.144220110276864 9.43266270342562 3.144220110276865 0 0 0
180 1 4.716330758564053 11.004773351712807 4.7163307585640535 0 0 0
181 1 6.28844140685124 9.43266270342562 3.144220110276865 0 0 0
182 1 7.860552055138431 11.004773351712807 4.7163307585640535 0 0 0
183 1 9.432662703425619 9.43266270342562 3.144220110276865 0 0 0
184 1 11.004773351712805 11.004773351712807 4.7163307585640535 0 0 0
185 1 12.576883999999994 9.43266270342562 3.144220110276865 0 0 0
186 1 14.148994648287188 11.004773351712807 4.7163307585640535 0 0 0
187 1 15.721105296574375 9.43266270342562 3.144220110276865 0 0 0
188 1 17.29321594486156 11.004773351712807 4.7163307585640535 0 0 0
189 1 18.86532659314875 9.43266270342562 3.144220110276865 0 0 0
190 1 20.43743724143594 11.004773351712807 4.7163307585640535 0 0 0
191 1 22.009547889723123 9.43266270342562 3.144220110276865 0 0 0
192 1 23.581658538010316 11.004773351712807 4.7163307585640535 0 0 0
193 1 -1.1862975122157461e-06 12.576883999999996 3.144220110276865 0 0 0
194 1 1.5721094619896754 14.14899464828719 4.7163307585640535 0 0 0
195 1 3.144220110276864 12.576883999999996 3.144220110276865 0 0 0
196 1 4.716330758564053 14.14899464828719 4.7163307585640535 0 0 0
197 1 6.28844140685124 12.576883999999996 3.144220110276865 0 0 0
198 1 7.860552055138431 14.14899464828719 4.7163307585640535 0 0 0
199 1 9.432662703425619 12.576883999999996 3.144220110276865 0 0 0
200 1 11.004773351712805 14.14899464828719 4.7163307585640535 0 0 0
201 1 12.576883999999994 12.576883999999996 3.144220110276865 0 0 0
202 1 14.148994648287188 14.14899464828719 4.7163307585640535 0 0 0
203 1 15.721105296574375 12.576883999999996 3.144220110276865 0 0 0
204 1 17.29321594486156 14.14899464828719 4.7163307585640535 0 0 0
205 1 18.86532659314875 12.576883999999996 3.144220110276865 0 0 0
206 1 20.43743724143594 14.14899464828719 4.7163307585640535 0 0 0
207 1 22.009547889723123 12.576883999999996 3.144220110276865 0 0 0
208 1 23.581658538010316 14.14899464828719 4.7163307585640535 0 0 0
209 1 -1.1862975122157514e-06 15.721105296574379 3.144220110276865 0 0 0
210 1 1.5721094619896754 17.29321594486156 4.7163307585640535 0 0 0
211 1 3.144220110276864 15.721105296574379 3.144220110276865 0 0 0
212 1 4.716330758564053 17.29321594486156 4.7163307585640535 0 0 0
213 1 6.28844140685124 15.721105296574379 3.144220110276865 0 0 0
214 1 7.860552055138431 17.29321594486156 4.7163307585640535 0 0 0
215 1 9.432662703425619 15.721105296574379 3.144220110276865 0 0 0
216 1 11.004773351712805 17.29321594486156 4.7163307585640535 0 0 0
217 1 12.576883999999994 15.721105296574379 3.144220110276865 0 0 0
218 1 14.148994648287188 17.29321594486156 4.7163307585640535 0 0 0
219 1 15.721105296574375 15.721105296574379 3.144220110276865 0 0 0
220 1 17.29321594486156 17.29321594486156 4.7163307585640535 0 0 0
221 1 18.86532659314875 15.721105296574379 3.144220110276865 0 0 0
222 1 20.43743724143594 17.29321594486156 4.7163307585640535 0 0 0
223 1 22.009547889723123 15.721105296574379 3.144220110276865 0 0 0
224 1 23.581658538010316 17.29321594486156 4.7163307585640535 0 0 0
225 1 -1.1862975122157413e-06 18.865326593148755 3.144220110276865 0 0 0
226 1 1.5721094619896754 20.437437241435944 4.7163307585640535 0 0 0
227 1 3.144220110276864 18.865326593148755 3.144220110276865 0 0 0
228 1 4.716330758564053 20.437437241435944 4.7163307585640535 0 0 0
229 1 6.28844140685124 18.865326593148755 3.144220110276865 0 0 0
230 1 7.860552055138431 20.437437241435944 4.7163307585640535 0 0 0
231 1 9.432662703425619 18.865326593148755 3.144220110276865 0 0 0
232 1 11.004773351712805 20.437437241435944 4.7163307585640535 0 0 0
233 1 12.576883999999994 18.865326593148755 3.144220110276865 0 0 0
234 1 14.148994648287188 20.437437241435944 4.7163307585640535 0 0 0
235 1 15.721105296574375 18.865326593148755 3.144220110276865 0 0 0
236 1 17.29321594486156 20.437437241435944 4.7163307585640535 0 0 0
237 1 18.86532659314875 18.865326593148755 3.144220110276865 0 0 0
238 1 20.43743724143594 20.437437241435944 4.7163307585640535 0 0 0
239 1 22.009547889723123 18.865326593148755 3.144220110276865 0 0 0
240 1 23.581658538010316 20.437437241435944 4.7163307585640535 0 0 0
241 1 -1.1862975122157658e-06 22.009547889723127 3.144220110276865 0 0 0
242 1 1.5721094619896754 23.58165853801032 4.7163307585640535 0 0 0
243 1 3.144220110276864 22.009547889723127 3.144220110276865 0 0 0
244 1 4.716330758564053 23.58165853801032 4.7163307585640535 0 0 0
245 1 6.28844140685124 22.009547889723127 3.144220110276865 0 0 0
246 1 7.860552055138431 23.58165853801032 4.7163307585640535 0 0 0
247 1 9.432662703425619 22.009547889723127 3.144220110276865 0 0 0
248 1 11.004773351712805 23.58165853801032 4.7163307585640535 0 0 0
249 1 12.576883999999994 22.009547889723127 3.144220110276865 0 0 0
250 1 14.148994648287188 23.58165853801032 4.7163307585640535 0 0 0
251 1 15.721105296574375 22.009547889723127 3.144220110276865 0 0 0
252 1 17.29321594486156 23.58165853801032 4.7163307585640535 0 0 0
253 1 18.86532659314875 22.009547889723127 3.144220110276865 0 0 0
254 1 20.43743724143594 23.58165853801032 4.7163307585640535 0 0 0
255 1 22.009547889723123 22.009547889723127 3.144220110276865 0 0 0
256 1 23.581658538010316 23.58165853801032 4.7163307585640535 0 0 0
257 1 -1.1862975122157025e-06 -1.1862975116722836e-06 6.288441406851241 0 0 0
258 1 1.5721094619896754 1.5721094619896758 7.860552055138433 0 0 0
259 1 3.144220110276864 -1.186297511672261e-06 6.288441406851241 0 0 0
260 1 4.716330758564053 1.5721094619896758 7.860552055138433 0 0 0
261 1 6.28844140685124 -1.1862975116722612e-06 6.288441406851241 0 0 0
262 1 7.860552055138431 1.5721094619896758 7.860552055138433 0 0 0
263 1 9.432662703425619 -1.186297511672273e-06 6.288441406851241 0 0 0
264 1 11.004773351712805 1.5721094619896758 7.860552055138433 0 0 0
265 1 12.576883999999994 -1.1862975116722743e-06 6.288441406851241 0 0 0
266 1 14.148994648287188 1.5721094619896758 7.860552055138433 0 0 0
267 1 15.721105296574375 -1.1862975116722644e-06 6.288441406851241 0 0 0
268 1 17.29321594486156 1.5721094619896758 7.860552055138433 0 0 0
269 1 18.86532659314875 -1.1862975116722722e-06 6.288441406851241 0 0 0
270 1 20.43743724143594 1.5721094619896758 7.860552055138433 0 0 0
271 1 22.009547889723123 -1.186297511672299e-06 6.288441406851241 0 0 0
272 1 23.581658538010316 1.5721094619896758 7.860552055138433 0 0 0
273 1 -1.1862975122157205e-06 3.1442201102768643 6.288441406851241 0 0 0
274 1 1.5721094619896754 4.716330758564054 7.860552055138433 0 0 0
275 1 3.144220110276864 3.1442201102768643 6.288441406851241 0 0 0
276 1 4.716330758564053 4.716330758564054 7.860552055138433 0 0 0
277 1 6.28844140685124 3.1442201102768643 6.288441406851241 0 0 0
278 1 7.860552055138431 4.716330758564054 7.860552055138433 0 0 0
279 1 9.432662703425619 3.1442201102768643 6.288441406851241 0 0 0
280 1 11.004773351712805 4.716330758564054 7.860552055138433 0 0 0
281 1 12.576883999999994 3.1442201102768643 6.288441406851241 0 0 0
282 1 14.148994648287188 4.716330758564054 7.860552055138433 0 0 0
283 1 15.721105296574375 3.1442201102768643 6.288441406851241 0 0 0
284 1 17.29321594486156 4.716330758564054 7.860552055138433 0 0 0
285 1 18.86532659314875 3.1442201102768643 6.288441406851241 0 0 0
286 1 20.43743724143594 4.716330758564054 7.860552055138433 0 0 0
287 1 22.009547889723123 3.1442201102768643 6.288441406851241 0 0 0
288 1 23.581658538010316 4.716330758564054 7.860552055138433 0 0 0
289 1 -1.1862975122156964e-06 6.288441406851242 6.288441406851241 0 0 0
290 1 1.5721094619896754 7.860552055138434 7.860552055138433 0 0 0
291 1 3.144220110276864 6.288441406851242 6.288441406851241 0 0 0
292 1 4.716330758564053 7.860552055138434 7.860552055138433 0 0 0
293 1 6.28844140685124 6.288441406851242 6.288441406851241 0 0 0
294 1 7.860552055138431 7.860552055138434 7.860552055138433 0 0 0
295 1 9.432662703425619 6.288441406851242 6.288441406851241 0 0 0
296 1 11.004773351712805 7.860552055138434 7.860552055138433 0 0 0
297 1 12.576883999999994 6.288441406851242 6.288441406851241 0 0 0
298 1 14.148994648287188 7.860552055138434 7.860552055138433 0 0 0
299 1 15.721105296574375 6.288441406851242 6.288441406851241 0 0 0
300 1 17.29321594486156 7.860552055138434 7.860552055138433 0 0 0
301 1 18.86532659314875 6.288441406851242 6.288441406851241 0 0 0
302 1 20.43743724143594 7.860552055138434 7.860552055138433 0 0 0
303 1 22.009547889723123 6.288441406851242 6.288441406851241 0 0 0
304 1 23.581658538010316 7.860552055138434 7.860552055138433 0 0 0
305 1 -1.1862975122157328e-06 9.43266270342562 6.288441406851241 0 0 0
306 1 1.5721094619896754 11.004773351712807 7.860552055138433 0 0 0
307 1 3.144220110276864 9.43266270342562 6.288441406851241 0 0 0
308 1 4.716330758564053 11.004773351712807 7.860552055138433 0 0 0
309 1 6.28844140685124 9.43266270342562 6.288441406851241 0 0 0
310 1 7.860552055138431 11.004773351712807 7.860552055138433 0 0 0
311 1 9.432662703425619 9.43266270342562 6.288441406851241 0 0 0
312 1 11.004773351712805 11.004773351712807 7.860552055138433 0 0 0
313 1 12.576883999999994 9.43266270342562 6.288441406851241 0 0 0
314 1 14.148994648287188 11.004773351712807 7.860552055138433 0 0 0
315 1 15.721105296574375 9.43266270342562 6.288441406851241 0 0 0
316 1 17.29321594486156 11.004773351712807 7.860552055138433 0 0 0
317 1 18.86532659314875 9.43266270342562 6.288441406851241 0 0 0
318 1 20.43743724143594 11.004773351712807 7.860552055138433 0 0 0
319 1 22.009547889723123 9.43266270342562 6.288441406851241 0 0 0
320 1 23.581658538010316 11.004773351712807 7.860552055138433 0 0 0
321 1 -1.1862975122157285e-06 12.576883999999996 6.288441406851241 0 0 0
322 1 1.5721094619896754 14.14899464828719 7.860552055138433 0 0 0
323 1 3.144220110276864 12.576883999999996 6.288441406851241 0 0 0
324 1 4.716330758564053 14.14899464828719 7.860552055138433 0 0 0
325 1 6.28844140685124 12.576883999999996 6.288441406851241 0 0 0
326 1 7.860552055138431 14.14899464828719 7.860552055138433 0 0 0
327 1 9.432662703425619 12.576883999999996 6.288441406851241 0 0 0
328 1 11.004773351712805 14.14899464828719 7.860552055138433 0 0 0
329 1 12.576883999999994 12.576883999999996 6.288441406851241 0 0 0
330 1 14.148994648287188 14.14899464828719 7.860552055138433 0 0 0
331 1 15.721105296574375 12.576883999999996 6.288441406851241 0 0 0
332 1 17.29321594486156 14.14899464828719 7.860552055138433 0 0 0
333 1 18.86532659314875 12.576883999999996 6.288441406851241 0 0 0
334 1 20.43743724143594 14.14899464828719 7.860552055138433 0 0 0
335 1 22.009547889723123 12.576883999999996 6.288441406851241 0 0 0
336 1 23.581658538010316 14.14899464828719 7.860552055138433 0 0 0
337 1 -1.1862975122157315e-06 15.721105296574379 6.288441406851241 0 0 0
338 1 1.5721094619896754 17.29321594486156 7.860552055138433 0 0 0
339 1 3.144220110276864 15.721105296574379 6.288441406851241 0 0 0
340 1 4.716330758564053 17.29321594486156 7.860552055138433 0 0 0
341 1 6.28844140685124 15.721105296574379 6.288441406851241 0 0 0
342 1 7.860552055138431 17.29321594486156 7.860552055138433 0 0 0
343 1 9.432662703425619 15.721105296574379 6.288441406851241 0 0 0
344 1 11.004773351712805 17.29321594486156 7.860552055138433 0 0 0
345 1 12.576883999999994 15.721105296574379 6.288441406851241 0 0 0
346 1 14.148994648287188 17.29321594486156 7.860552055138433 0 0 0
347 1 15.721105296574375 15.721105296574379 6.288441406851241 0 0 0
348 1 17.29321594486156 17.29321594486156 7.860552055138433 0 0 0
349 1 18.86532659314875 15.721105296574379 6.288441406851241 0 0 0
350 1 20.43743724143594 17.29321594486156 7.860552055138433 0 0 0
351 1 22.009547889723123 15.721105296574379 6.288441406851241 0 0 0
352 1 23.581658538010316 17.29321594486156 7.860552055138433 0 0 0
353 1 -1.1862975122157343e-06 18.865326593148755 6.288441406851241 0 0 0
354 1 1.5721094619896754 20.437437241435944 7.860552055138433 0 0 0
355 1 3.144220110276864 18.865326593148755 6.288441406851241 0 0 0
356 1 4.716330758564053 20.437437241435944 7.860552055138433 0 0 0
357 1 6.28844140685124 18.865326593148755 6.288441406851241 0 0 0
358 1 7.860552055138431 20.437437241435944 7.860552055138433 0 0 0
359 1 9.432662703425619 18.865326593148755 6.288441406851241 0 0 0
360 1 11.004773351712805 20.437437241435944 7.860552055138433 0 0 0
361 1 12.576883999999994 18.865326593148755 6.288441406851241 0 0 0
362 1 14.148994648287188 20.437437241435944 7.860552055138433 0 0 0
363 1 15.721105296574375 18.865326593148755 6.288441406851241 0 0 0
364 1 17.29321594486156 20.437437241435944 7.860552055138433 0 0 0
365 1 18.86532659314875 18.865326593148755 6.288441406851241 0 0 0
366 1 20.43743724143594 20.437437241435944 7.860552055138433 0 0 0
367 1 22.009547889723123 18.865326593148755 6.288441406851241 0 0 0
368 1 23.581658538010316 20.437437241435944 7.860552055138433 0 0 0
369 1 -1.1862975122157506e-06 22.009547889723127 6.288441406851241 0 0 0
370 1 1.5721094619896754 23.58165853801032 7.860552055138433 0 0 0
371 1 3.144220110276864 22.009547889723127 6.288441406851241 0 0 0
372 1 4.716330758564053 23.58165853801032 7.860552055138433 0 0 0
373 1 6.28844140685124 22.009547889723127 6.288441406851241 0 0 0
374 1 7.860552055138431 23.58165853801032 7.860552055138433 0 0 0
375 1 9.432662703425619 22.009547889723127 6.288441406851241 0 0 0
376 1 11.004773351712805 23.58165853801032 7.860552055138433 0 0 0
377 1 12.576883999999994 22.009547889723127 6.288441406851241 0 0 0
378 1 14.148994648287188 23.58165853801032 7.860552055138433 0 0 0
379 1 15.721105296574375 22.009547889723127 6.288441406851241 0 0 0
380 1 17.29321594486156 23.58165853801032 7.860552055138433 0 0 0
381 1 18.86532659314875 22.009547889723127 6.288441406851241 0 0 0
382 1 20.43743724143594 23.58165853801032 7.860552055138433 0 0 0
383 1 22.009547889723123 22.009547889723127 6.288441406851241 0 0 0
384 1 23.581658538010316 23.58165853801032 7.860552055138433 0 0 0
385 1 -1.1862975122157211e-06 -1.1862975116722597e-06 9.43266270342562 0 0 0
386 1 1.5721094619896754 1.5721094619896758 11.004773351712808 0 0 0
387 1 3.144220110276864 -1.1862975116722836e-06 9.43266270342562 0 0 0
388 1 4.716330758564053 1.5721094619896758 11.004773351712808 0 0 0
389 1 6.28844140685124 -1.186297511672263e-06 9.43266270342562 0 0 0
390 1 7.860552055138431 1.5721094619896758 11.004773351712808 0 0 0
391 1 9.432662703425619 -1.186297511672295e-06 9.43266270342562 0 0 0
392 1 11.004773351712805 1.5721094619896758 11.004773351712808 0 0 0
393 1 12.576883999999994 -1.1862975116723057e-06 9.43266270342562 0 0 0
394 1 14.148994648287188 1.5721094619896758 11.004773351712808 0 0 0
395 1 15.721105296574375 -1.186297511672272e-06 9.43266270342562 0 0 0
396 1 17.29321594486156 1.5721094619896758 11.004773351712808 0 0 0
397 1 18.86532659314875 -1.1862975116722629e-06 9.43266270342562 0 0 0
398 1 20.43743724143594 1.5721094619896758 11.004773351712808 0 0 0
399 1 22.009547889723123 -1.1862975116723116e-06 9.43266270342562 0 0 0
400 1 23.581658538010316 1.5721094619896758 11.004773351712808 0 0 0
401 1 -1.186297512215671e-06 3.1442201102768643 9.43266270342562 0 0 0
402 1 1.5721094619896754 4.716330758564054 11.004773351712808 0 0 0
403 1 3.144220110276864 3.1442201102768643 9.43266270342562 0 0 0
404 1 4.716330758564053 4.716330758564054 11.004773351712808 0 0 0
405 1 6.28844140685124 3.1442201102768643 9.43266270342562 0 0 0
406 1 7.860552055138431 4.716330758564054 11.004773351712808 0 0 0
407 1 9.432662703425619 3.1442201102768643 9.43266270342562 0 0 0
408 1 11.004773351712805 4.716330758564054 11.004773351712808 0 0 0
409 1 12.576883999999994 3.1442201102768643 9.43266270342562 0 0 0
410 1 14.148994648287188 4.716330758564054 11.004773351712808 0 0 0
411 1 15.721105296574375 3.1442201102768643 9.43266270342562 0 0 0
412 1 17.29321594486156 4.716330758564054 11.004773351712808 0 0 0
413 1 18.86532659314875 3.1442201102768643 9.43266270342562 0 0 0
414 1 20.43743724143594 4.716330758564054 11.004773351712808 0 0 0
415 1 22.009547889723123 3.1442201102768643 9.43266270342562 0 0 0
416 1 23.581658538010316 4.716330758564054 11.004773351712808 0 0 0
417 1 -1.1862975122156699e-06 6.288441406851242 9.43266270342562 0 0 0
418 1 1.5721094619896754 7.860552055138434 11.004773351712808 0 0 0
419 1 3.144220110276864 6.288441406851242 9.43266270342562 0 0 0
420 1 4.716330758564053 7.860552055138434 11.004773351712808 0 0 0
421 1 6.28844140685124 6.288441406851242 9.43266270342562 0 0 0
422 1 7.860552055138431 7.860552055138434 11.004773351712808 0 0 0
423 1 9.432662703425619 6.288441406851242 9.43266270342562 0 0 0
424 1 11.004773351712805 7.860552055138434 11.004773351712808 0 0 0
425 1 12.576883999999994 6.288441406851242 9.43266270342562 0 0 0
426 1 14.148994648287188 7.860552055138434 11.004773351712808 0 0 0
427 1 15.721105296574375 6.288441406851242 9.43266270342562 0 0 0
428 1 17.29321594486156 7.860552055138434 11.004773351712808 0 0 0
429 1 18.86532659314875 6.288441406851242 9.43266270342562 0 0 0
430 1 20.43743724143594 7.860552055138434 11.004773351712808 0 0 0
431 1 22.009547889723123 6.288441406851242 9.43266270342562 0 0 0
432 1 23.581658538010316 7.860552055138434 11.004773351712808 0 0 0
433 1 -1.186297512215666e-06 9.43266270342562 9.43266270342562 0 0 0