LAMMPS data file via write_data, version 2 Aug 2023, timestep = 380, units = metal

3600 atoms
3 atom types

0.08200368147817996 37.64864831852195 xlo xhi
0.08199767317973597 37.64865432682036 ylo yhi
-15.828545588836175 53.55919758883617 zlo zhi

Masses

1 183.84
2 1.008
3 4.0026

Atoms # atomic

240 1 9.473664840739138 34.51809960568364 6.24365513318362 0 0 0
2 1 1.6472805413550122 1.6472750337481077 1.5280762053182102 0 0 0
3 1 3.2125574012318334 37.648654326820356 -0.042611792823207796 0 -1 0
4 1 4.777834261108648 1.6472750337481077 1.5280762053182102 0 0 0
5 1 6.343111120985475 37.648654326820356 -0.042611792823207796 0 -1 0
6 1 7.908387980862298 1.6472750337481086 1.5280762053182064 0 0 0
7 1 9.473664840739136 37.64865432682035 -0.042611792823200094 0 -1 0
8 1 11.038941700615961 1.6472750337481046 1.5280762053182142 0 0 0
238 1 3.212557401231838 34.518099605683666 6.24365513318362 0 0 0
10 1 1.6472805413550138 4.777829754884809 1.528076205318195 0 0 0
11 1 3.2125574012318325 3.2125523943164485 -0.04261179282318665 0 0 0
12 1 4.777834261108652 4.777829754884808 1.528076205318195 0 0 0
13 1 6.343111120985475 3.2125523943164507 -0.04261179282319819 0 0 0
14 1 7.9083879808623045 4.777829754884809 1.5280762053182102 0 0 0
15 1 9.473664840739135 3.212552394316453 -0.04261179282318472 0 0 0
16 1 11.038941700615949 4.777829754884807 1.5280762053181796 0 0 0
236 1 9.473664840739135 31.38754488454688 6.24365513318362 0 0 0
18 1 1.647280541355015 7.908384476021516 1.5280762053182064 0 0 0
19 1 3.2125574012318245 6.343107115453173 -0.04261179282320012 0 0 0
20 1 4.777834261108657 7.90838447602153 1.5280762053181796 0 0 0
21 1 6.343111120985475 6.343107115453174 -0.04261179282318663 0 0 0
22 1 7.908387980862303 7.908384476021518 1.5280762053182102 0 0 0
23 1 9.473664840739126 6.343107115453174 -0.04261179282318664 0 0 0
24 1 11.038941700615949 7.908384476021523 1.5280762053181796 0 0 0
235 1 6.343111120985485 31.387544884546905 6.24365513318362 0 0 0
26 1 1.6472805413550098 11.038939197158255 1.5280762053181796 0 0 0
27 1 3.2125574012318365 9.47366183658989 -0.04261179282320012 0 0 0
28 1 4.777834261108657 11.038939197158246 1.5280762053181796 0 0 0
29 1 6.343111120985472 9.47366183658989 -0.04261179282319819 0 0 0
30 1 7.908387980862298 11.03893919715825 1.5280762053181796 0 0 0
31 1 9.473664840739136 9.47366183658989 -0.04261179282319819 0 0 0
32 1 11.038941700615952 11.038939197158255 1.5280762053181796 0 0 0
234 1 3.2125574012318334 31.387544884546905 6.24365513318362 0 0 0
34 1 1.6472805413550067 14.169493918294975 1.5280762053182217 0 0 0
35 1 3.2125574012318365 12.604216557726598 -0.04261179282320012 0 0 0
36 1 4.777834261108651 14.169493918294965 1.5280762053181796 0 0 0
37 1 6.343111120985475 12.604216557726604 -0.04261179282319819 0 0 0
38 1 7.9083879808622966 14.169493918294965 1.5280762053182064 0 0 0
39 1 9.473664840739126 12.604216557726604 -0.042611792823200115 0 0 0
40 1 11.038941700615965 14.169493918294965 1.5280762053182255 0 0 0
232 1 9.473664840739135 28.256990163410215 6.243655133183597 0 0 0
42 1 1.6472805413550038 17.30004863943166 1.5280762053181796 0 0 0
43 1 3.2125574012318308 15.734771278863331 -0.04261179282318473 0 0 0
44 1 4.777834261108657 17.3000486394317 1.528076205318195 0 0 0
45 1 6.343111120985475 15.734771278863331 -0.04261179282318472 0 0 0
46 1 7.9083879808622966 17.300048639431687 1.5280762053181796 0 0 0
47 1 9.473664840739126 15.734771278863331 -0.04261179282319819 0 0 0
48 1 11.038941700615952 17.300048639431687 1.528076205318195 0 0 0
231 1 6.343111120985482 28.256990163410197 6.2436551331836085 0 0 0
50 1 1.6472805413550127 20.430603360568412 1.5280762053182102 0 0 0
51 1 3.2125574012318365 18.865326000000046 -0.04261179282319819 0 0 0
52 1 4.777834261108659 20.43060336056839 1.5280762053182102 0 0 0
53 1 6.343111120985475 18.865326000000046 -0.04261179282319819 0 0 0
54 1 7.908387980862308 20.430603360568423 1.5280762053182102 0 0 0
55 1 9.473664840739135 18.865326000000035 -0.04261179282319819 0 0 0
56 1 11.038941700615949 20.43060336056839 1.5280762053182102 0 0 0
230 1 3.2125574012318308 28.256990163410215 6.243655133183597 0 0 0
58 1 1.6472805413550218 23.56115808170512 1.5280762053181796 0 0 0
59 1 3.2125574012318308 21.995880721136757 -0.04261179282318663 0 0 0
60 1 4.777834261108657 23.56115808170512 1.5280762053181796 0 0 0
61 1 6.343111120985475 21.995880721136757 -0.04261179282318664 0 0 0
62 1 7.908387980862298 23.56115808170512 1.5280762053181796 0 0 0
63 1 9.473664840739126 21.995880721136757 -0.04261179282318664 0 0 0
64 1 11.038941700615949 23.56115808170512 1.5280762053181796 0 0 0
228 1 9.473664840739135 25.126435442273472 6.24365513318362 0 0 0
66 1 1.6472805413550082 26.691712802841835 1.5280762053182102 0 0 0
67 1 3.2125574012318308 25.12643544227346 -0.04261179282318664 0 0 0
68 1 4.77783426110865 26.691712802841835 1.5280762053182064 0 0 0
69 1 6.343111120985482 25.126435442273472 -0.04261179282319819 0 0 0
70 1 7.908387980862303 26.691712802841835 1.5280762053181949 0 0 0
71 1 9.473664840739126 25.126435442273472 -0.04261179282318663 0 0 0
72 1 11.038941700615949 26.691712802841835 1.5280762053182102 0 0 0
227 1 6.343111120985485 25.12643544227346 6.2436551331836085 0 0 0
74 1 1.6472805413550122 29.822267523978535 1.5280762053181642 0 0 0
75 1 3.2125574012318365 28.256990163410197 -0.0426117928232059 0 0 0
76 1 4.777834261108652 29.822267523978546 1.5280762053181796 0 0 0
77 1 6.343111120985475 28.256990163410176 -0.0426117928231982 0 0 0
78 1 7.908387980862303 29.822267523978546 1.5280762053181796 0 0 0
79 1 9.473664840739126 28.256990163410197 -0.042611792823200115 0 0 0
80 1 11.038941700615949 29.822267523978535 1.528076205318195 0 0 0
226 1 3.2125574012318276 25.126435442273483 6.24365513318362 0 0 0
82 1 1.6472805413550247 32.95282224511527 1.5280762053181949 0 0 0
83 1 3.2125574012318325 31.387544884546926 -0.04261179282318663 0 0 0
84 1 4.7778342611086435 32.9528222451153 1.5280762053182102 0 0 0
85 1 6.343111120985475 31.387544884546926 -0.042611792823198186 0 0 0
86 1 7.908387980862298 32.95282224511525 1.5280762053182064 0 0 0
87 1 9.473664840739126 31.387544884546905 -0.042611792823198186 0 0 0
88 1 11.038941700615965 32.95282224511525 1.5280762053182102 0 0 0
239 1 6.343111120985472 34.51809960568364 6.24365513318362 0 0 0
90 1 1.6472805413550007 36.083376966251954 1.5280762053181796 0 0 0
91 1 3.2125574012318325 34.51809960568364 -0.042611792823180894 0 0 0
92 1 4.777834261108659 36.083376966251954 1.528076205318168 0 0 0
93 1 6.343111120985475 34.51809960568364 -0.042611792823184724 0 0 0
94 1 7.9083879808622966 36.083376966251954 1.528076205318195 0 0 0
95 1 9.473664840739138 34.518099605683666 -0.04261179282318472 0 0 0
96 1 11.038941700615949 36.083376966251954 1.5280762053182027 0 0 0
224 1 9.473664840739126 21.995880721136775 6.2436551331836085 0 0 0
98 1 1.6472805413550187 1.647275033748073 4.666608391974307 0 0 0
99 1 3.212557401231817 0.0819976731797534 3.0850225583028803 0 0 0
100 1 4.777834261108659 1.6472750337480688 4.666608391974307 0 0 0
101 1 6.343111120985493 0.08199767317974231 3.0850225583028803 0 0 0
102 1 7.9083879808623045 1.6472750337480757 4.666608391974307 0 0 0
103 1 9.473664840739117 0.08199767317974058 3.0850225583028648 0 0 0
104 1 11.038941700615961 1.6472750337480608 4.666608391974307 0 0 0
223 1 6.343111120985482 21.995880721136775 6.24365513318362 0 0 0
106 1 1.6472805413550153 4.777829754884825 4.666608391974327 0 0 0
107 1 3.212557401231818 3.212552394316441 3.0850225583028377 0 0 0
108 1 4.777834261108657 4.77782975488482 4.666608391974319 0 0 0
109 1 6.343111120985495 3.21255239431644 3.0850225583028457 0 0 0
110 1 7.908387980862303 4.777829754884812 4.666608391974307 0 0 0
111 1 9.47366484073911 3.212552394316444 3.0850225583028457 0 0 0
112 1 11.038941700615961 4.777829754884822 4.666608391974327 0 0 0
222 1 3.21255740123183 21.995880721136782 6.24365513318362 0 0 0
114 1 1.6472805413550113 7.908384476021536 4.666608391974307 0 0 0
115 1 3.2125574012318157 6.343107115453174 3.0850225583028457 0 0 0
116 1 4.777834261108652 7.908384476021547 4.666608391974315 0 0 0
117 1 6.343111120985499 6.343107115453168 3.085022558302849 0 0 0
118 1 7.908387980862303 7.908384476021541 4.666608391974307 0 0 0
119 1 9.473664840739104 6.343107115453174 3.0850225583028457 0 0 0
120 1 11.038941700615958 7.908384476021542 4.666608391974315 0 0 0
220 1 9.473664840739135 18.865326000000028 6.243655133183648 0 0 0
122 1 1.6472805413550053 11.038939197158236 4.666608391974315 0 0 0
123 1 3.212557401231826 9.473661836589882 3.0850225583028457 0 0 0
124 1 4.777834261108664 11.038939197158243 4.666608391974327 0 0 0
125 1 6.343111120985482 9.473661836589887 3.0850225583028648 0 0 0
126 1 7.9083879808622966 11.038939197158236 4.666608391974315 0 0 0
127 1 9.473664840739122 9.473661836589882 3.0850225583028723 0 0 0
128 1 11.038941700615949 11.038939197158223 4.666608391974327 0 0 0
219 1 6.343111120985475 18.86532600000003 6.2436551331836085 0 0 0
130 1 1.6472805413550202 14.169493918294965 4.666608391974277 0 0 0
131 1 3.212557401231814 12.604216557726632 3.0850225583028457 0 0 0
132 1 4.777834261108664 14.169493918294952 4.666608391974327 0 0 0
133 1 6.343111120985482 12.604216557726616 3.0850225583028803 0 0 0
134 1 7.90838798086229 14.169493918294965 4.666608391974315 0 0 0
135 1 9.473664840739126 12.604216557726623 3.0850225583028457 0 0 0
136 1 11.038941700615958 14.169493918294975 4.666608391974277 0 0 0
218 1 3.2125574012318356 18.86532600000003 6.24365513318362 0 0 0
138 1 1.6472805413550182 17.300048639431676 4.666608391974327 0 0 0
139 1 3.212557401231803 15.734771278863299 3.0850225583028377 0 0 0
140 1 4.777834261108662 17.3000486394317 4.666608391974327 0 0 0
141 1 6.343111120985491 15.73477127886331 3.085022558302849 0 0 0
142 1 7.9083879808622966 17.300048639431687 4.666608391974327 0 0 0
143 1 9.473664840739136 15.734771278863299 3.0850225583028377 0 0 0
144 1 11.038941700615952 17.300048639431687 4.666608391974327 0 0 0
216 1 9.473664840739126 15.734771278863343 6.243655133183628 0 0 0
146 1 1.6472805413550233 20.43060336056843 4.666608391974307 0 0 0
147 1 3.21255740123185 18.86532600000007 3.0850225583028377 0 0 0
148 1 4.777834261108651 20.43060336056839 4.666608391974307 0 0 0
149 1 6.343111120985482 18.86532600000007 3.0850225583028648 0 0 0
150 1 7.9083879808622966 20.430603360568412 4.666608391974307 0 0 0
151 1 9.473664840739136 18.86532600000007 3.0850225583028377 0 0 0
152 1 11.038941700615961 20.430603360568412 4.666608391974307 0 0 0
215 1 6.343111120985469 15.734771278863333 6.24365513318362 0 0 0
154 1 1.6472805413550298 23.561158081705095 4.666608391974327 0 0 0
155 1 3.2125574012318245 21.99588072113675 3.0850225583028648 0 0 0
156 1 4.777834261108646 23.56115808170512 4.666608391974327 0 0 0
157 1 6.343111120985485 21.995880721136736 3.0850225583028457 0 0 0
158 1 7.908387980862314 23.56115808170512 4.666608391974327 0 0 0
159 1 9.473664840739117 21.99588072113673 3.0850225583028377 0 0 0
160 1 11.038941700615952 23.56115808170512 4.666608391974327 0 0 0
214 1 3.2125574012318365 15.734771278863334 6.24365513318364 0 0 0
162 1 1.6472805413550173 26.691712802841856 4.666608391974315 0 0 0
163 1 3.212557401231838 25.126435442273497 3.0850225583028457 0 0 0
164 1 4.777834261108651 26.69171280284184 4.666608391974307 0 0 0
165 1 6.343111120985485 25.126435442273497 3.0850225583028457 0 0 0
166 1 7.908387980862308 26.691712802841835 4.666608391974315 0 0 0
167 1 9.473664840739126 25.126435442273507 3.085022558302849 0 0 0
168 1 11.038941700615945 26.69171280284184 4.666608391974315 0 0 0
212 1 9.473664840739135 12.604216557726609 6.24365513318362 0 0 0
170 1 1.6472805413550289 29.822267523978535 4.666608391974327 0 0 0
171 1 3.2125574012318427 28.256990163410176 3.0850225583028457 0 0 0
172 1 4.777834261108657 29.822267523978528 4.666608391974327 0 0 0
173 1 6.343111120985469 28.256990163410194 3.0850225583028457 0 0 0
174 1 7.9083879808622966 29.822267523978535 4.666608391974327 0 0 0
175 1 9.473664840739126 28.256990163410194 3.0850225583028723 0 0 0
176 1 11.038941700615952 29.822267523978546 4.666608391974327 0 0 0
211 1 6.343111120985475 12.60421655772661 6.2436551331836085 0 0 0
178 1 1.6472805413550218 32.95282224511522 4.666608391974307 0 0 0
179 1 3.2125574012318485 31.38754488454693 3.0850225583028457 0 0 0
180 1 4.777834261108652 32.95282224511525 4.666608391974304 0 0 0
181 1 6.343111120985493 31.387544884546926 3.0850225583028648 0 0 0
182 1 7.9083879808622966 32.95282224511522 4.666608391974307 0 0 0
183 1 9.473664840739113 31.387544884546926 3.0850225583028648 0 0 0
184 1 11.038941700615958 32.95282224511525 4.666608391974296 0 0 0
210 1 3.2125574012318396 12.604216557726609 6.24365513318364 0 0 0
186 1 1.6472805413550242 36.083376966252004 4.666608391974315 0 0 0
187 1 3.2125574012318268 34.51809960568359 3.0850225583028377 0 0 0
188 1 4.777834261108662 36.083376966252025 4.666608391974346 0 0 0
189 1 6.343111120985489 34.51809960568362 3.0850225583028457 0 0 0
190 1 7.908387980862303 36.083376966252004 4.666608391974315 0 0 0
191 1 9.473664840739122 34.51809960568362 3.0850225583028457 0 0 0
192 1 11.038941700615949 36.083376966252004 4.666608391974319 0 0 0
208 1 9.473664840739138 9.47366183658989 6.243655133183597 0 0 0
194 1 3.212557401231854 37.64865432682035 6.2436551331836085 0 -1 0
195 1 6.343111120985469 37.64865432682035 6.243655133183597 0 -1 0
196 1 9.473664840739136 37.648654326820356 6.2436551331835775 0 -1 0
207 1 6.343111120985469 9.473661836589887 6.24365513318362 0 0 0
198 1 3.2125574012318396 3.212552394316462 6.243655133183648 0 0 0
199 1 6.343111120985475 3.2125523943164573 6.24365513318362 0 0 0
200 1 9.473664840739135 3.2125523943164547 6.24365513318362 0 0 0
206 1 3.212557401231841 9.473661836589887 6.243655133183597 0 0 0
202 1 3.2125574012318476 6.3431071154531615 6.2436551331836085 0 0 0
203 1 6.343111120985469 6.343107115453167 6.24365513318362 0 0 0
204 1 9.473664840739138 6.3431071154531615 6.24365513318364 0 0 0
1209 1 12.604218560492765 3.21255239431645 -0.04261179282318088 0 0 0
1265 1 12.60421856049276 25.126435442273472 -0.04261179282318663 0 0 0
1337 1 12.60421856049276 15.734771278863287 3.0850225583028723 0 0 0
1405 1 12.60421856049276 9.47366183658989 6.243655133183597 0 0 0
205 1 0.08200368147818438 9.473661836589889 6.2436551331836085 0 0 0
201 1 0.08200368147818438 6.343107115453167 6.24365513318362 0 0 0
197 1 0.0820036814782199 3.212552394316456 6.24365513318364 0 0 0
209 1 0.08200368147818438 12.604216557726609 6.243655133183648 0 0 0
193 1 0.0820036814782199 37.648654326820356 6.2436551331836085 0 -1 0
185 1 0.08200368147818438 34.51809960568362 3.08502255830283 0 0 0
177 1 0.0820036814782199 31.387544884546926 3.0850225583028648 0 0 0
213 1 0.08200368147818438 15.734771278863345 6.2436551331836165 0 0 0
89 1 0.08200368147818438 34.51809960568364 -0.04261179282318472 0 0 0
153 1 0.08200368147818438 21.99588072113671 3.0850225583028377 0 0 0
217 1 0.08200368147818438 18.865326000000028 6.24365513318362 0 0 0
237 1 0.0820036814782199 34.51809960568364 6.24365513318362 0 0 0
137 1 0.0820036814782199 15.734771278863297 3.08502255830283 0 0 0
129 1 0.08200368147818438 12.604216557726616 3.0850225583028377 0 0 0
221 1 0.0820036814782199 21.99588072113676 6.24365513318364 0 0 0
25 1 0.08200368147818438 9.47366183658989 -0.0426117928232078 0 0 0
113 1 0.08200368147818438 6.34310711545317 3.0850225583028457 0 0 0
105 1 0.08200368147818438 3.212552394316437 3.0850225583028457 0 0 0
225 1 0.08200368147818438 25.126435442273483 6.24365513318362 0 0 0
97 1 0.08200368147818438 0.08199767317974777 3.0850225583028688 0 0 0
33 1 0.08200368147818438 12.604216557726598 -0.04261179282319819 0 0 0
73 1 0.08200368147818438 28.256990163410176 -0.042611792823200115 0 0 0
229 1 0.0820036814782199 28.256990163410194 6.24365513318362 0 0 0
233 1 0.08200368147818438 31.38754488454691 6.2436551331836165 0 0 0
57 1 0.08200368147818438 21.995880721136757 -0.04261179282320588 0 0 0
241 1 1.6472805413550262 1.647275033748104 7.821526144836894 0 0 0
242 1 4.777834261108652 1.64727503374809 7.821526144836894 0 0 0
243 1 7.9083879808623045 1.647275033748104 7.821526144836894 0 0 0
244 1 11.038941700615952 1.6472750337480981 7.821526144836894 0 0 0
245 1 1.6472805413550222 4.777829754884809 7.821526144836886 0 0 0
246 1 4.777834261108657 4.77782975488481 7.8215261448368745 0 0 0
247 1 7.908387980862303 4.777829754884809 7.821526144836886 0 0 0
248 1 11.038941700615952 4.777829754884822 7.8215261448368745 0 0 0
249 1 1.6472805413550142 7.908384476021534 7.821526144836894 0 0 0
250 1 4.777834261108659 7.908384476021535 7.821526144836886 0 0 0
251 1 7.9083879808622966 7.90838447602153 7.821526144836894 0 0 0
252 1 11.038941700615952 7.908384476021516 7.821526144836886 0 0 0
253 1 1.6472805413550187 11.038939197158259 7.821526144836894 0 0 0
254 1 4.777834261108652 11.038939197158248 7.821526144836894 0 0 0
255 1 7.908387980862308 11.038939197158255 7.8215261448369136 0 0 0
256 1 11.038941700615952 11.03893919715825 7.8215261448368745 0 0 0
257 1 1.6472805413550233 14.169493918294956 7.8215261448368745 0 0 0
258 1 4.777834261108652 14.169493918294979 7.821526144836894 0 0 0
259 1 7.908387980862308 14.169493918294956 7.821526144836898 0 0 0
260 1 11.038941700615949 14.169493918294956 7.821526144836898 0 0 0
261 1 1.6472805413550182 17.300048639431687 7.821526144836863 0 0 0
262 1 4.777834261108648 17.300048639431687 7.821526144836886 0 0 0
263 1 7.908387980862311 17.300048639431687 7.821526144836886 0 0 0
264 1 11.038941700615945 17.300048639431687 7.8215261448368745 0 0 0
265 1 1.6472805413550053 20.430603360568412 7.821526144836894 0 0 0
266 1 4.777834261108657 20.430603360568412 7.821526144836894 0 0 0
267 1 7.9083879808623045 20.430603360568412 7.821526144836894 0 0 0
268 1 11.038941700615952 20.430603360568405 7.821526144836894 0 0 0
269 1 1.6472805413549985 23.561158081705095 7.821526144836894 0 0 0
270 1 4.777834261108658 23.561158081705102 7.821526144836886 0 0 0
271 1 7.9083879808622966 23.561158081705102 7.821526144836886 0 0 0
272 1 11.038941700615965 23.561158081705102 7.8215261448368745 0 0 0
273 1 1.6472805413550105 26.69171280284183 7.8215261448368745 0 0 0
274 1 4.777834261108652 26.69171280284183 7.821526144836894 0 0 0
275 1 7.908387980862303 26.691712802841835 7.821526144836894 0 0 0
276 1 11.038941700615958 26.69171280284184 7.8215261448368745 0 0 0
277 1 1.6472805413550022 29.822267523978546 7.8215261448368745 0 0 0
278 1 4.777834261108664 29.822267523978567 7.821526144836886 0 0 0
279 1 7.908387980862308 29.822267523978574 7.821526144836886 0 0 0
280 1 11.038941700615949 29.822267523978574 7.821526144836894 0 0 0
281 1 1.647280541355015 32.95282224511525 7.821526144836898 0 0 0
282 1 4.777834261108668 32.95282224511525 7.821526144836898 0 0 0
283 1 7.9083879808622966 32.95282224511525 7.821526144836894 0 0 0
284 1 11.038941700615949 32.95282224511525 7.821526144836886 0 0 0
285 1 1.6472805413550233 36.083376966251976 7.8215261448368745 0 0 0
286 1 4.777834261108662 36.083376966251976 7.8215261448368745 0 0 0
287 1 7.908387980862308 36.083376966251976 7.8215261448368745 0 0 0
288 1 11.038941700615961 36.083376966251954 7.821526144836894 0 0 0
960 1 11.038941700615949 36.083376966252025 29.909125855163058 0 0 0
290 1 1.6472805413550131 1.6472750337480997 10.976892910931912 0 0 0
291 1 3.2125574012318427 37.64865432682035 9.399188922626061 0 -1 0
292 1 4.777834261108662 1.6472750337480802 10.976892910931909 0 0 0
293 1 6.343111120985487 0.08199767317973597 9.399188922626053 0 0 0
294 1 7.908387980862303 1.6472750337480861 10.976892910931909 0 0 0
295 1 9.473664840739122 0.08199767317973619 9.399188922626061 0 0 0
296 1 11.038941700615958 1.6472750337480846 10.976892910931896 0 0 0
959 1 9.473664840739117 34.518099605683666 28.331463077373847 0 0 0
298 1 1.6472805413550187 4.777829754884811 10.976892910931893 0 0 0
299 1 3.2125574012318334 3.212552394316461 9.399188922626033 0 0 0
300 1 4.777834261108664 4.77782975488482 10.976892910931896 0 0 0
301 1 6.343111120985499 3.21255239431646 9.399188922626033 0 0 0
302 1 7.9083879808622966 4.77782975488481 10.976892910931896 0 0 0
303 1 9.473664840739126 3.2125523943164516 9.399188922626033 0 0 0
304 1 11.038941700615961 4.777829754884805 10.976892910931896 0 0 0
958 1 7.908387980862314 36.083376966252004 29.909125855163058 0 0 0
306 1 1.6472805413550173 7.908384476021534 10.976892910931896 0 0 0
307 1 3.2125574012318396 6.343107115453173 9.399188922626053 0 0 0
308 1 4.777834261108658 7.908384476021529 10.976892910931909 0 0 0
309 1 6.343111120985482 6.343107115453167 9.399188922626042 0 0 0
310 1 7.908387980862307 7.908384476021535 10.976892910931936 0 0 0
311 1 9.473664840739138 6.3431071154531615 9.399188922626053 0 0 0
312 1 11.038941700615958 7.908384476021534 10.976892910931896 0 0 0
957 1 6.343111120985491 34.51809960568364 28.33146307737394 0 0 0
314 1 1.6472805413550209 11.038939197158243 10.976892910931909 0 0 0
315 1 3.2125574012318396 9.473661836589883 9.399188922626026 0 0 0
316 1 4.777834261108662 11.038939197158255 10.976892910931912 0 0 0
317 1 6.343111120985487 9.473661836589892 9.399188922626042 0 0 0
318 1 7.908387980862303 11.038939197158246 10.976892910931912 0 0 0
319 1 9.473664840739135 9.473661836589894 9.399188922626053 0 0 0
320 1 11.038941700615958 11.038939197158246 10.976892910931896 0 0 0
956 1 4.777834261108652 36.083376966251976 29.909125855163058 0 0 0
322 1 1.6472805413550247 14.169493918294979 10.976892910931912 0 0 0
323 1 3.2125574012318365 12.60421655772661 9.399188922626053 0 0 0
324 1 4.777834261108656 14.169493918294965 10.976892910931909 0 0 0
325 1 6.343111120985493 12.604216557726597 9.399188922626053 0 0 0
326 1 7.908387980862301 14.169493918294979 10.976892910931896 0 0 0
327 1 9.473664840739126 12.604216557726604 9.399188922626053 0 0 0
328 1 11.038941700615952 14.169493918294974 10.976892910931896 0 0 0
955 1 3.2125574012318387 34.518099605683666 28.33146307737392 0 0 0
330 1 1.6472805413550284 17.300048639431676 10.976892910931936 0 0 0
331 1 3.2125574012318454 15.734771278863331 9.399188922626053 0 0 0
332 1 4.777834261108664 17.300048639431676 10.976892910931896 0 0 0
333 1 6.343111120985487 15.734771278863333 9.399188922626053 0 0 0
334 1 7.908387980862303 17.300048639431676 10.976892910931896 0 0 0
335 1 9.473664840739115 15.73477127886332 9.399188922626053 0 0 0
336 1 11.038941700615949 17.300048639431687 10.976892910931936 0 0 0
954 1 1.6472805413550182 36.083376966252025 29.909125855163058 0 0 0
338 1 1.6472805413550078 20.43060336056839 10.976892910931936 0 0 0
339 1 3.2125574012318445 18.865326000000046 9.399188922626026 0 0 0
340 1 4.777834261108657 20.43060336056841 10.97689291093192 0 0 0
341 1 6.343111120985478 18.865326000000042 9.399188922626026 0 0 0
342 1 7.908387980862314 20.43060336056839 10.976892910931912 0 0 0
343 1 9.473664840739126 18.86532600000005 9.399188922626026 0 0 0
344 1 11.038941700615949 20.430603360568405 10.976892910931909 0 0 0
952 1 11.038941700615945 32.95282224511518 29.909125855163058 0 0 0
346 1 1.6472805413550002 23.561158081705127 10.976892910931866 0 0 0
347 1 3.21255740123183 21.995880721136764 9.399188922626053 0 0 0
348 1 4.777834261108664 23.56115808170512 10.976892910931896 0 0 0
349 1 6.343111120985478 21.995880721136775 9.399188922626053 0 0 0
350 1 7.9083879808623045 23.561158081705102 10.976892910931866 0 0 0
351 1 9.473664840739126 21.995880721136757 9.399188922626061 0 0 0
352 1 11.03894170061594 23.561158081705127 10.976892910931893 0 0 0
951 1 9.473664840739145 31.387544884546926 28.33146307737394 0 0 0
354 1 1.6472805413550067 26.69171280284181 10.976892910931893 0 0 0
355 1 3.2125574012318308 25.126435442273472 9.399188922626033 0 0 0
356 1 4.777834261108664 26.69171280284181 10.976892910931909 0 0 0
357 1 6.343111120985477 25.126435442273472 9.399188922626053 0 0 0
358 1 7.908387980862303 26.691712802841835 10.976892910931909 0 0 0
359 1 9.473664840739133 25.126435442273472 9.399188922626042 0 0 0
360 1 11.038941700615947 26.69171280284182 10.976892910931909 0 0 0
950 1 7.9083879808622966 32.95282224511522 29.909125855163058 0 0 0
362 1 1.6472805413550093 29.822267523978574 10.976892910931896 0 0 0
363 1 3.2125574012318365 28.256990163410197 9.399188922626053 0 0 0
364 1 4.777834261108657 29.822267523978574 10.976892910931893 0 0 0
365 1 6.343111120985471 28.256990163410194 9.399188922626053 0 0 0
366 1 7.9083879808622966 29.822267523978567 10.976892910931896 0 0 0
367 1 9.473664840739135 28.256990163410194 9.399188922626026 0 0 0
368 1 11.038941700615952 29.822267523978546 10.976892910931893 0 0 0
949 1 6.343111120985496 31.387544884546905 28.33146307737391 0 0 0
370 1 1.6472805413550258 32.95282224511525 10.97689291093187 0 0 0
371 1 3.2125574012318427 31.387544884546926 9.399188922626061 0 0 0
372 1 4.777834261108641 32.95282224511525 10.976892910931882 0 0 0
373 1 6.343111120985475 31.387544884546905 9.399188922626053 0 0 0
374 1 7.9083879808622966 32.95282224511525 10.976892910931909 0 0 0
375 1 9.473664840739122 31.38754488454691 9.399188922626026 0 0 0
376 1 11.038941700615958 32.95282224511525 10.976892910931893 0 0 0
948 1 4.777834261108686 32.95282224511525 29.909125855163058 0 0 0
378 1 1.6472805413550278 36.083376966251976 10.976892910931896 0 0 0
379 1 3.2125574012318308 34.51809960568364 9.399188922626061 0 0 0
380 1 4.777834261108652 36.083376966252004 10.976892910931893 0 0 0
381 1 6.343111120985487 34.51809960568362 9.399188922626015 0 0 0
382 1 7.908387980862303 36.083376966251976 10.976892910931893 0 0 0
383 1 9.473664840739133 34.51809960568362 9.399188922626015 0 0 0
384 1 11.038941700615965 36.083376966251976 10.976892910931893 0 0 0
947 1 3.2125574012317935 31.387544884546926 28.331463077373872 0 0 0
386 1 1.6472805413550433 1.6472750337480935 14.132265489687695 0 0 0
387 1 3.2125574012318454 0.08199767317974341 12.55457764775648 0 0 0
388 1 4.777834261108657 1.6472750337481104 14.132265489687718 0 0 0
389 1 6.343111120985475 37.648654326820356 12.554577647756453 0 -1 0
390 1 7.908387980862311 1.647275033748109 14.132265489687727 0 0 0
391 1 9.473664840739126 37.648654326820356 12.55457764775648 0 -1 0
392 1 11.038941700615945 1.6472750337481072 14.132265489687729 0 0 0
946 1 1.6472805413549862 32.9528222451152 29.909125855163058 0 0 0
394 1 1.6472805413550307 4.77782975488481 14.132265489687718 0 0 0
395 1 3.2125574012318276 3.212552394316439 12.554577647756496 0 0 0
396 1 4.777834261108656 4.777829754884805 14.132265489687743 0 0 0
397 1 6.343111120985475 3.212552394316444 12.554577647756483 0 0 0
398 1 7.908387980862314 4.777829754884806 14.132265489687729 0 0 0
399 1 9.473664840739135 3.2125523943164453 12.554577647756483 0 0 0
400 1 11.038941700615945 4.777829754884808 14.132265489687743 0 0 0
944 1 11.038941700615961 29.82226752397863 29.909125855163058 0 0 0
402 1 1.6472805413550187 7.9083844760215225 14.132265489687729 0 0 0
403 1 3.2125574012318214 6.3431071154531615 12.554577647756483 0 0 0
404 1 4.777834261108664 7.908384476021535 14.132265489687773 0 0 0
405 1 6.343111120985493 6.343107115453179 12.55457764775646 0 0 0
406 1 7.908387980862303 7.908384476021517 14.132265489687725 0 0 0
407 1 9.473664840739122 6.3431071154531855 12.554577647756483 0 0 0
408 1 11.038941700615952 7.908384476021535 14.132265489687743 0 0 0
943 1 9.473664840739117 28.256990163410176 28.331463077373854 0 0 0
410 1 1.6472805413550105 11.038939197158255 14.132265489687718 0 0 0
411 1 3.2125574012318308 9.473661836589885 12.55457764775648 0 0 0
412 1 4.777834261108664 11.038939197158232 14.132265489687727 0 0 0
413 1 6.343111120985491 9.473661836589885 12.55457764775646 0 0 0
414 1 7.908387980862314 11.03893919715825 14.132265489687729 0 0 0
415 1 9.473664840739126 9.473661836589883 12.55457764775648 0 0 0
416 1 11.038941700615961 11.03893919715825 14.132265489687729 0 0 0
942 1 7.908387980862303 29.822267523978574 29.909125855163058 0 0 0
418 1 1.647280541355015 14.169493918294956 14.132265489687729 0 0 0
419 1 3.2125574012318445 12.604216557726609 12.55457764775648 0 0 0
420 1 4.777834261108651 14.169493918294956 14.132265489687727 0 0 0
421 1 6.343111120985475 12.604216557726609 12.55457764775648 0 0 0
422 1 7.908387980862332 14.169493918294956 14.132265489687754 0 0 0
423 1 9.473664840739122 12.604216557726597 12.554577647756503 0 0 0
424 1 11.038941700615952 14.169493918294956 14.132265489687745 0 0 0
941 1 6.343111120985482 28.256990163410215 28.33146307737391 0 0 0
426 1 1.6472805413550233 17.300048639431687 14.132265489687718 0 0 0
427 1 3.2125574012318348 15.734771278863331 12.554577647756453 0 0 0
428 1 4.777834261108652 17.300048639431687 14.132265489687766 0 0 0
429 1 6.343111120985485 15.734771278863331 12.55457764775646 0 0 0
430 1 7.9083879808623205 17.300048639431687 14.132265489687743 0 0 0
431 1 9.473664840739126 15.734771278863334 12.55457764775648 0 0 0
432 1 11.038941700615952 17.30004863943166 14.132265489687743 0 0 0
940 1 4.777834261108692 29.822267523978528 29.909125855163058 0 0 0
434 1 1.6472805413550338 20.430603360568412 14.132265489687718 0 0 0
435 1 3.212557401231826 18.86532600000007 12.55457764775648 0 0 0
436 1 4.77783426110865 20.430603360568412 14.132265489687725 0 0 0
437 1 6.343111120985482 18.86532600000007 12.55457764775648 0 0 0
438 1 7.908387980862303 20.430603360568437 14.132265489687729 0 0 0
439 1 9.473664840739126 18.865326000000053 12.55457764775648 0 0 0
440 1 11.038941700615958 20.430603360568437 14.132265489687718 0 0 0
939 1 3.2125574012318334 28.256990163410194 28.331463077373847 0 0 0
442 1 1.6472805413550233 23.561158081705116 14.132265489687786 0 0 0
443 1 3.212557401231862 21.995880721136714 12.554577647756496 0 0 0
444 1 4.77783426110865 23.561158081705102 14.132265489687718 0 0 0
445 1 6.343111120985463 21.99588072113675 12.554577647756483 0 0 0
446 1 7.9083879808622966 23.56115808170512 14.132265489687777 0 0 0