LAMMPS data file via write_data, version 2 Aug 2023, timestep = 13761, units = metal

8000 atoms
3 atom types

0.0022980542607022453 54.457207167989466 xlo xhi
-0.009601038517978413 51.354514962141124 ylo yhi
-0.005062637966027316 44.471062450948565 zlo zhi

Masses

1 183.84
2 1.008
3 4.0026

Atoms # atomic

1 1 0.9885387246596674 20.53605958603985 44.47106190456637 0 0 -1
2 1 0.9211054589131408 24.388356201082576 2.218743744214329 0 0 0
3 1 0.03598236798929416 23.10425076062536 44.47106204916774 0 0 -1
4 1 2.7587278958072776 23.104250787610418 -0.005062427295041676 0 0 0
5 1 1.8062366042402385 25.6724550490361 -0.005062486496236953 0 0 0
6 1 4.528981917891327 25.672454985808194 44.471062083714315 0 0 -1
7 1 1.1240027273597086 12.831532379198958 -0.005061825791188752 0 0 0
8 1 1.0561021361724885 16.6838016487768 2.218743712768385 0 0 0
9 1 0.17111472474782913 15.399730280286933 -0.005062062605874306 0 0 0
10 1 2.893859940449589 15.399730187517163 44.47106142142746 0 0 -1
11 1 0.9885388709697811 20.536059627062848 4.442550155279252 0 0 0
12 1 0.10346062448995662 19.251973303315822 2.218743724745598 0 0 0
13 1 2.82620777268398 19.251974065140487 2.2187438610849055 0 0 0
14 1 1.9411399469574113 17.96788132850783 44.47106170857986 0 0 -1
15 1 4.663885661425473 17.967881432278947 -0.0050622464015537254 0 0 0
16 1 0.9211047051149298 24.388355876954286 6.666356209927454 0 0 0
17 1 0.03598241763494002 23.104250794817446 4.442550034357815 0 0 0
18 1 2.7587277388856566 23.104250740001984 4.442549479022802 0 0 0
19 1 1.8736253114040282 21.820147605925502 2.218743774001178 0 0 0
20 1 4.596369563407601 21.82014706496091 2.218743644690569 0 0 0
21 1 3.711284312152416 20.53605963700176 -0.005062364499432387 0 0 0
22 1 6.43402952617767 20.53605953754006 44.47106191883947 0 0 -1
23 1 1.8062364994507742 25.672454982945133 4.442549578181936 0 0 0
24 1 4.528982102826052 25.672455047015823 4.4425500016923545 0 0 0
25 1 3.6438500064246764 24.38835578932893 2.2187436648339083 0 0 0
26 1 6.366596396889484 24.388356212109453 2.2187437915802346 0 0 0
27 1 5.481473197575335 23.104250723075644 44.47106204392928 0 0 -1
28 1 8.204218866665926 23.104250814161524 -0.005062433918641659 0 0 0
29 1 9.974472819313997 25.67245498166881 44.471062085620616 0 0 -1
30 1 1.2606546481025498 5.126837351351652 44.47106027715547 0 0 -1
31 1 1.1921391543671338 8.979208243722885 2.2187442249562004 0 0 0
32 1 0.30735836366313896 7.695081955564928 44.47106043177693 0 0 -1
33 1 3.0301042492652344 7.695082141800133 -0.0050614662420921655 0 0 0
34 1 1.1240021657183181 12.831532161119016 4.442548415178423 0 0 0
1384 1 16.712404821628358 3.8427198232911848 42.24725662623821 0 0 0
36 1 2.9618462567802593 11.547436633843484 2.218743674583215 0 0 0
37 1 2.076971216574454 10.26333356433707 -0.005061640056763862 0 0 0
38 1 4.79971606075528 10.263333300581012 44.47106082205696 0 0 -1
39 1 1.05610453539932 16.683802701422444 6.666356477199232 0 0 0
40 1 0.17111440946370757 15.399730135151513 4.442548799663121 0 0 0
41 1 2.8938604848140863 15.399730401623739 4.442550484703412 0 0 0
42 1 2.008915677724998 14.115636541241612 2.2187437113084063 0 0 0
43 1 4.731664330322353 14.115637990856666 2.2187441302001605 0 0 0
44 1 3.8467477505948593 12.831532194990643 44.471061121516286 0 0 -1
45 1 6.569493890178669 12.831532490404994 -0.005061961247245834 0 0 0
46 1 0.9885386684824229 20.536059558136532 8.890161909878637 0 0 0
47 1 0.10346227293722067 19.251974065073046 6.6663563383600914 0 0 0
48 1 2.826206127902629 19.251973341358827 6.666356139773832 0 0 0
49 1 1.9411402579379498 17.96788147240417 4.442550290605001 0 0 0
50 1 4.663885181427225 17.96788124548822 4.442549118329378 0 0 0
51 1 3.7788499684883 16.683802714055812 2.218743964670316 0 0 0
52 1 6.501593151463937 16.68380169340493 2.2187436007602988 0 0 0
53 1 5.616605848089919 15.399730381618735 -0.005062126606886809 0 0 0
54 1 8.339350655604981 15.399730100302246 44.471061522229725 0 0 -1
55 1 0.9211051172861027 24.388356052718873 11.11396869165518 0 0 0
56 1 0.03598239953178693 23.104250775154423 8.890162104809248 0 0 0
57 1 2.758727896873324 23.104250789737613 8.890162480197638 0 0 0
58 1 1.8736241903517155 21.82014708270216 6.666356184531154 0 0 0
59 1 4.596370688055898 21.820147554660494 6.666356338900608 0 0 0
60 1 3.7112840321959206 20.536059504086708 4.442549341737133 0 0 0
61 1 6.434029914801128 20.536059685739424 4.442550143166017 0 0 0
62 1 5.548951564907107 19.25197331312857 2.218743637378602 0 0 0
63 1 8.271698606518353 19.251974031508766 2.2187439389331853 0 0 0
64 1 7.386630705135388 17.967881255981144 44.47106175710126 0 0 -1
65 1 10.109376702871286 17.96788148991024 -0.00506232433493213 0 0 0
66 1 1.806236521281127 25.672455011302276 8.890162361777609 0 0 0
67 1 4.528981970612068 25.672455010166978 8.890162170677911 0 0 0
68 1 3.6438508141632497 24.388356177535528 6.666356261659002 0 0 0
69 1 6.366595565016756 24.38835585470047 6.6663561422963875 0 0 0
70 1 5.481473442101384 23.104250846414526 4.442550051439194 0 0 0
71 1 8.204218571054115 23.10425070493927 4.442549479344602 0 0 0
72 1 7.319116205399334 21.82014760107293 2.2187438300334867 0 0 0
73 1 10.041860523780718 21.82014708640778 2.218743603078271 0 0 0
74 1 9.156775314798496 20.536059680562058 -0.005062401100387709 0 0 0
75 1 11.879520375553357 20.536059510187076 44.47106197678891 0 0 -1
76 1 7.251727332170209 25.67245494725334 4.442549551013138 0 0 0
77 1 9.974473047436177 25.67245506131987 4.442550022522904 0 0 0
78 1 9.089340916264225 24.388355786225308 2.218743635102661 0 0 0
79 1 11.812087284917153 24.388356201420965 2.2187437925880693 0 0 0
80 1 10.92696407925705 23.104250707955348 44.47106207115213 0 0 -1
81 1 13.649709773101101 23.10425081207941 -0.005062468163226843 0 0 0
82 1 12.697218443777421 25.672455057764044 -0.005062481508494272 0 0 0
83 1 1.329265542156225 1.274501576927965 2.218743880824166 0 0 0
3287 1 18.142709596733713 25.672455135576623 31.128224778184894 0 0 0
3423 1 18.142709056540774 25.672454928539498 35.575837457599604 0 0 0
86 1 1.2606554179686325 5.126837657958803 4.442551386180139 0 0 0
87 1 0.37592771571378875 3.8427177945836903 2.218743845434323 0 0 0
88 1 3.0986792375640646 3.8427205340907156 2.2187442645821944 0 0 0
89 1 2.21395951506166 2.5586129796426693 44.471060394205566 0 0 -1
90 1 4.936705062246382 2.5586130331078474 -0.005061568979992391 0 0 0
91 1 1.1921338000041595 8.979205856640679 6.666356040823785 0 0 0
92 1 0.3073590817815568 7.695082311542344 4.442551259866521 0 0 0
93 1 3.0301032564361274 7.6950817382496615 4.442547829153914 0 0 0
94 1 2.145375690583204 6.410963103015183 2.218744262993376 0 0 0
95 1 4.8681156398568675 6.410960618875563 2.2187436761339243 0 0 0
96 1 3.983400473771619 5.126837532141223 -0.005061472605292346 0 0 0
97 1 6.706145385237889 5.126837281698092 44.47106061862632 0 0 -1
98 1 1.1240031171105966 12.831532564196928 8.890163244970509 0 0 0
3011 1 18.14270959693404 25.672455133888125 22.232999823432596 0 0 0
100 1 2.961850467578087 11.547438483759288 6.666356850152289 0 0 0
101 1 2.076970393375209 10.263333171095574 4.442548096277246 0 0 0
102 1 4.799717158236108 10.263333751509345 4.442550860643815 0 0 0
103 1 3.9148795336062605 8.979205942170468 2.2187436808405696 0 0 0
104 1 6.637629614460721 8.979208038518534 2.2187443977158567 0 0 0
105 1 5.752849018077257 7.695081828317616 44.471060666760074 0 0 -1
106 1 8.475595379480742 7.695082234332398 -0.00506179644232364 0 0 0
107 1 1.0561022689608504 16.6838017005727 11.113968674508742 0 0 0
108 1 0.17111496302501297 15.399730387478252 8.89016297893777 0 0 0
109 1 2.8938596643929806 15.399730055282653 8.890161354336593 0 0 0
110 1 2.0089189862100563 14.115638068967163 6.666356650755193 0 0 0
111 1 4.731661210978843 14.115636600468937 6.666356023884736 0 0 0
112 1 3.8467485883496435 12.831532588298131 4.442550671857581 0 0 0
113 1 6.569492818870603 12.83153204796951 4.442548568850826 0 0 0
114 1 5.684595714375913 11.547438422766175 2.218744260701077 0 0 0
115 1 8.407337546347618 11.54743680319816 2.2187435351929734 0 0 0
116 1 7.5224623869428955 10.263333691205691 -0.005061868448516726 0 0 0
117 1 10.245206759531763 10.263333208998656 44.47106109022215 0 0 -1
118 1 0.9885387612202998 20.536059578605386 13.337775007944005 0 0 0
119 1 0.10346081441602004 19.25197338790624 11.113968739926941 0 0 0
120 1 2.8262075914406353 19.251973990706055 11.11396888994516 0 0 0
121 1 1.9411397916742525 17.96788125983223 8.890161670164595 0 0 0
122 1 4.66388583970774 17.9678815172794 8.890162748194593 0 0 0
123 1 3.77884763539073 16.68380164368524 6.666356099148948 0 0 0
124 1 6.501595339508606 16.68380265607123 6.666356606144299 0 0 0
125 1 5.616605087394532 15.39973002540468 4.442548869098987 0 0 0
126 1 8.339351589415834 15.399730487335814 4.442550359185522 0 0 0
127 1 7.454406809662486 14.11563663996499 2.2187435812703784 0 0 0
128 1 10.177154945505917 14.115637857051098 2.218744245193738 0 0 0
129 1 9.29223843945602 12.83153208718455 44.47106129928732 0 0 -1
130 1 12.014984973487069 12.8315325656026 -0.005062176259972584 0 0 0
131 1 0.9211051061924723 24.38835604942928 15.561581336315838 0 0 0
132 1 0.03598226666287426 23.104250731903303 13.337774849073003 0 0 0
133 1 2.7587278741499395 23.104250801443712 13.337774700299914 0 0 0
134 1 1.8736250590680454 21.82014749468223 11.113968760375187 0 0 0
135 1 4.5963697975457105 21.820147164007473 11.11396867365995 0 0 0
136 1 3.7112843970463913 20.536059674055647 8.890162592332926 0 0 0
137 1 6.434029426131939 20.536059490114663 8.890161911952102 0 0 0
138 1 5.5489531624464155 19.251974058024494 6.666356444749041 0 0 0
139 1 8.271697108400188 19.25197337113952 6.66635605621526 0 0 0
140 1 7.386631334050192 17.967881550017193 4.442550232928385 0 0 0
141 1 10.109375969200288 17.967881191501696 4.442549205274077 0 0 0
142 1 9.22434071175069 16.683802640266705 2.2187440599459918 0 0 0
143 1 11.947084278134533 16.68380178932374 2.2187435265329243 0 0 0
144 1 11.062096922448756 15.39973046147914 -0.005062263991308483 0 0 0
145 1 13.784841452407234 15.399730049415384 44.471061685525655 0 0 -1
146 1 1.8062366848057572 25.672455061990288 13.337774850446426 0 0 0
147 1 4.528981930584518 25.67245496796445 13.337774778821004 0 0 0
148 1 3.6438503284676567 24.3883559314615 11.113968735155574 0 0 0
149 1 6.366596101050517 24.388356085051765 11.113968764139832 0 0 0
150 1 5.48147317316586 23.10425071220586 8.890162077592914 0 0 0
151 1 8.204218905757424 23.104250833077135 8.890162498106024 0 0 0
152 1 7.319115101603748 21.820147080447786 6.666356114903346 0 0 0
153 1 10.041861568859005 21.820147541654567 6.666356382003665 0 0 0
154 1 9.156774844649766 20.536059457233613 4.442549378137246 0 0 0
155 1 11.879520883365869 20.536059710569226 4.442550091434232 0 0 0
156 1 10.994442594287673 19.251973365226643 2.2187435805460924 0 0 0
157 1 13.717189369477918 19.2519739652541 2.2187439676140923 0 0 0
158 1 12.832121521409384 17.96788120917338 44.47106185991023 0 0 -1
159 1 15.554867665345201 17.967881512464285 -0.0050624317738473075 0 0 0
160 1 7.251727535953662 25.672455058280566 8.890162411122294 0 0 0
161 1 9.974472826218138 25.672454985840268 8.890162137019763 0 0 0
162 1 9.089341754049444 24.388356192227096 6.666356298629726 0 0 0
163 1 11.812086472863934 24.388355853422524 6.666356126140359 0 0 0
164 1 10.926964392935485 23.10425086616665 4.442550038785847 0 0 0
165 1 13.649709485609762 23.10425070675059 4.442549513009229 0 0 0
166 1 12.76460704017867 21.820147567463742 2.218743842642299 0 0 0
167 1 15.487351534469559 21.820147130341308 2.2187436052739042 0 0 0
168 1 14.60226625287751 20.536059695291797 -0.005062466550599973 0 0 0
169 1 17.32501129782452 20.53605951510844 44.47106206206548 0 0 -1
170 1 15.419963900104793 25.672455034519007 4.442550011157779 0 0 0
171 1 14.534831875639949 24.3883558078966 2.218743652814241 0 0 0
172 1 17.257578124630307 24.388356170030274 2.2187437449534735 0 0 0
173 1 16.372455030391848 23.104250724210225 44.47106212451157 0 0 -1
174 1 1.3292716970371703 1.274504312165245 6.6663570095041145 0 0 0
1138 1 0.2391009197000426 11.54743665115221 42.24725654934803 0 0 0
1008 1 0.23910456420576964 11.547438310969838 37.7996438065074 0 0 0
177 1 1.2606537312616664 5.126836929924455 8.890160060722282 0 0 0
178 1 0.37593429792461786 3.842720821735494 6.666356995135588 0 0 0
179 1 3.0986733278439913 3.8427179231180775 6.666355963811085 0 0 0
180 1 2.213960129023011 2.558613334222177 4.442551277269693 0 0 0
181 1 4.936704410753189 2.5586127967973846 4.442547891294321 0 0 0
182 1 4.052016489477817 1.2745040710412336 2.2187441128329404 0 0 0
183 1 6.774757325375677 1.2745019821914785 2.2187438973405413 0 0 0
4826 1 18.14270893129785 25.672454876980666 26.680612344858936 0 0 0
2883 1 18.142709073534 25.672454938860913 17.785387323166685 0 0 0
186 1 1.1921391306432991 8.97920824725027 11.113969525992 0 0 0
187 1 0.3073576484554407 7.695081632387163 8.890160240047656 0 0 0
188 1 3.030105003632601 7.69508249387537 8.890163658153645 0 0 0
189 1 2.145369761888046 6.41096037822708 6.666355997836513 0 0 0
190 1 4.868120933708566 6.410962956950996 6.66635712288984 0 0 0
191 1 3.9833995095522257 5.126837032180398 4.442547790272446 0 0 0
192 1 6.70614647316101 5.126837712931599 4.442550925211249 0 0 0
193 1 5.821419334949718 3.8427181162778954 2.2187437916096506 0 0 0
194 1 8.544169322068733 3.842720153467977 2.21874432513407 0 0 0
195 1 7.659450363121561 2.558612941170528 44.471060824307315 0 0 -1
196 1 10.38219601540915 2.558613040308817 -0.005062040757692108 0 0 0
197 1 1.1240020856607083 12.83153212010032 13.33777357417361 0 0 0
1382 1 17.665742064564817 1.2745032181625466 42.24725649371236 0 0 0
199 1 2.9618463213635255 11.547436649408294 11.113968475383034 0 0 0
200 1 2.076971781273138 10.263333817208604 8.890163468449394 0 0 0
201 1 4.799715484332905 10.263333030325276 8.890160722922271 0 0 0
202 1 3.9148844886251535 8.979208230451132 6.6663570112030195 0 0 0
203 1 6.637625213523736 8.979206085060303 6.666355891511612 0 0 0
204 1 5.752850250063312 7.695082435532946 4.44255092982677 0 0 0
205 1 8.475593988992497 7.695081665813893 4.4425482190801375 0 0 0
206 1 7.590865948146775 6.410962805193126 2.218744381971188 0 0 0
207 1 10.313607288416728 6.410960957198062 2.2187435998154954 0 0 0
208 1 9.428891524326723 5.126837604572869 -0.005061892050587041 0 0 0
209 1 12.15163620778858 5.126837249745643 44.47106104500963 0 0 -1
210 1 1.0561042353103651 16.68380257733187 15.5615814087814 0 0 0
211 1 0.17111443023660605 15.399730137562422 13.337773946801041 0 0 0
212 1 2.8938604969407846 15.399730410934914 13.337775382386127 0 0 0
213 1 2.00891577318288 14.115636587992213 11.113968599004098 0 0 0
214 1 4.7316642372209445 14.1156379604798 11.113969271326784 0 0 0
215 1 3.846747333684313 12.831532008820174 8.890161027541009 0 0 0
216 1 6.569494303971589 12.83153268598508 8.890163077460628 0 0 0
217 1 5.684591846836007 11.547436659642543 6.666355963915585 0 0 0
218 1 8.407340966046908 11.547438299456534 6.666356990345493 0 0 0
219 1 7.522461059710511 10.263333053965113 4.442548360554326 0 0 0
220 1 10.245208237641043 10.263333821741911 4.442550529448881 0 0 0
221 1 9.360371006909542 8.979206199415994 2.2187435681201086 0 0 0
222 1 12.083119910010977 8.97920775573048 2.218744482997188 0 0 0
223 1 11.198339763360018 7.695081744500133 44.471061025219036 0 0 -1
224 1 13.921086386182774 7.695082272501975 -0.005062161191318391 0 0 0
225 1 0.9885388942965226 20.536059661523094 17.78538711927433 0 0 0
226 1 0.10346196066670428 19.251973923551272 15.561581250830962 0 0 0
227 1 2.82620642960041 19.251973467573624 15.561581243463685 0 0 0
228 1 1.941140198901023 17.96788145261032 13.337775177992794 0 0 0
229 1 4.663885222881054 17.967881262350666 13.337774273687385 0 0 0
230 1 3.77884983928097 16.683802653318985 11.11396904305138 0 0 0
231 1 6.501593269903076 16.68380173822953 11.11396854213512 0 0 0
232 1 5.616606135781762 15.399730510009896 8.890162901862682 0 0 0
233 1 8.339350379786909 15.399729968599374 8.890161469771547 0 0 0
234 1 7.454409659495271 14.115637961944719 6.666356793093271 0 0 0
235 1 10.177152435472804 14.1156367420896 6.66635592624237 0 0 0
236 1 9.29223970038899 12.831532684884534 4.442550451522974 0 0 0
237 1 12.014983601517644 12.831531994069001 4.442548821526541 0 0 0
238 1 11.1300861732414 11.54743821842004 2.218744365137674 0 0 0
239 1 13.85282893914787 11.547437020936504 2.2187434649445397 0 0 0
240 1 12.967953448118928 10.263333766333886 -0.005062163564954114 0 0 0
241 1 15.69069759684891 10.263333178163913 44.4710613952269 0 0 -1
242 1 0.9211048238189324 24.38835592839856 20.009193592893222 0 0 0
243 1 0.035982606230350565 23.10425086000129 17.78538732365701 0 0 0
244 1 2.7587276808823766 23.10425069033137 17.7853872980388 0 0 0
245 1 1.87362453139692 21.820147235948706 15.56158130431901 0 0 0
246 1 4.596370364590711 21.82014741828638 15.561581258655675 0 0 0
247 1 3.711284123172291 20.536059538903626 13.337774518661362 0 0 0
248 1 6.434029833361184 20.53605965014914 13.337775016922333 0 0 0
249 1 5.548951732815559 19.251973389455564 11.113968625335369 0 0 0
250 1 8.271698457128455 19.251973971668626 11.113968978097622 0 0 0
251 1 7.386630523688732 17.967881176140136 8.8901617171225 0 0 0
252 1 10.109376871985248 17.967881570337735 8.890162672160093 0 0 0
253 1 9.224338718092834 16.683801719713596 6.6663560079499256 0 0 0
254 1 11.947086033051608 16.68380255926021 6.666356662300792 0 0 0
255 1 11.062095859244158 15.399729957268587 4.4425490273299255 0 0 0
256 1 13.784842575448055 15.399730519105082 4.4425501852419425 0 0 0
257 1 12.89989806303729 14.115636796761743 2.2187435045467794 0 0 0
258 1 15.622645499935162 14.115637693634014 2.2187442756070177 0 0 0
259 1 14.737729240897206 12.831532032021903 44.47106153512324 0 0 -1
260 1 17.46047592182558 12.831532581134267 -0.005062389414790438 0 0 0
261 1 1.806236305773947 25.672454922144276 17.785387154954662 0 0 0
262 1 4.528982197556812 25.672455114422426 17.785387414802983 0 0 0
263 1 3.6438504243372214 24.388356002042396 15.561581163366638 0 0 0
264 1 6.366595931950664 24.38835601025592 15.561581265241543 0 0 0
265 1 5.481473320105942 23.10425079766041 13.337774887908514 0 0 0
266 1 8.204218684072378 23.104250756119743 13.337774672015964 0 0 0
267 1 7.319115992783985 21.820147506039792 11.11396883546525 0 0 0
268 1 10.041860711294252 21.820147164487697 11.113968622876143 0 0 0
269 1 9.156775417205987 20.53605972549235 8.890162570826226 0 0 0
270 1 11.879520281313395 20.536059465811967 8.890161955561474 0 0 0
271 1 10.99444396440459 19.251974009232388 6.666356494784155 0 0 0
272 1 13.717188158843557 19.25197343322348 6.6663560303434135 0 0 0
273 1 12.832122319314289 17.967881587419857 4.4425501284509235 0 0 0
274 1 15.554866861874636 17.967881184448853 4.442549331962418 0 0 0
275 1 14.669831379558325 16.68380252967914 2.2187440923571 0 0 0
276 1 17.392575439310004 16.68380190213399 2.2187435111245297 0 0 0
277 1 16.50758789194988 15.399730492431123 -0.005062421439206367 0 0 0
278 1 9.974472903993892 25.672454995501475 13.33777483518419 0 0 0
279 1 9.089341183165939 24.388355905151776 11.113968685770608 0 0 0
280 1 11.812087049042422 24.388356101224492 11.113968780400462 0 0 0
281 1 10.92696403304342 23.10425068709183 8.890162078984906 0 0 0
282 1 13.64970982042751 23.104250834276055 8.890162488420065 0 0 0
283 1 12.76460607151195 21.82014710671398 6.66635609613398 0 0 0
284 1 15.487352398358423 21.820147505585513 6.666356366729072 0 0 0
285 1 14.602265744023258 20.536059448716692 4.442549451353946 0 0 0
286 1 17.32501176038132 20.536059694677732 4.442550017008256 0 0 0
287 1 16.43993367275854 19.25197344216092 2.218743571901512 0 0 0
288 1 15.41996377732464 25.672455003987906 8.890162135567694 0 0 0
289 1 14.53483264278274 24.388356181249563 6.666356279512626 0 0 0
290 1 17.25757743259474 24.388355874367747 6.666356161924373 0 0 0
291 1 16.372455259505152 23.104250848403623 4.442549999873083 0 0 0
292 1 1.3292652395321092 1.2745014252555005 11.113968231270624 0 0 0
871 1 0.2391014253544693 11.547436885013578 33.352031763495695 0 0 0
731 1 0.2391042522829494 11.54743816097018 28.904418764572323 0 0 0
295 1 1.2606560112871594 5.126837931656538 13.337776323150974 0 0 0
296 1 0.3759275803148381 3.842717754921869 11.113968322838888 0 0 0
297 1 3.0986793841360294 3.8427206151487834 11.113969811683381 0 0 0
298 1 2.2139584296943586 2.558612497285677 8.89016011217594 0 0 0
299 1 4.936706122345116 2.558613516747953 8.890163626308492 0 0 0
300 1 4.052011187518646 1.274501607187336 6.66635607171458 0 0 0
301 1 6.774761637850033 1.2745038612741815 6.666356976622442 0 0 0
2781 1 18.14270936800809 25.672455036391515 13.337774742556098 0 0 0
594 1 0.23910144609793896 11.547436903502877 24.456806538613495 0 0 0
304 1 1.192134179496123 8.979206011697329 15.561580997766264 0 0 0
305 1 0.3073594403552014 7.69508248284138 13.337776176108298 0 0 0
306 1 3.0301028427370458 7.6950815427854895 13.3377729738859 0 0 0
307 1 2.145375723790238 6.4109631018109035 11.113969693182865 0 0 0
308 1 4.868115605452254 6.410960587007064 11.113968253472631 0 0 0
309 1 3.9834014003818305 5.126837941464647 8.890163695587809 0 0 0
310 1 6.706144506329411 5.126836878319314 8.890160497545967 0 0 0
311 1 5.821424421001006 3.8427204645031785 6.666357067597623 0 0 0
312 1 8.54416515644488 3.8427183452792444 6.666355965722157 0 0 0
313 1 7.659451038599961 2.558613337684956 4.442550709450228 0 0 0
314 1 10.382195377868909 2.5586128341444923 4.442548468610061 0 0 0
315 1 9.497506469007392 1.2745036441826707 2.2187440904040554 0 0 0
316 1 12.220249143508049 1.2745024011377175 2.218743924846034 0 0 0
5191 1 18.142709406463236 25.672455055942912 40.023449679343564 0 0 0
455 1 0.23910451212354686 11.547438273846812 20.00919406501955 0 0 0
319 1 1.1240028701110025 12.831532452051578 17.785388021850913 0 0 0
1381 1 14.942994677277298 1.2745023600290848 42.24725677314673 0 0 0
321 1 2.961850140577247 11.547438353046156 15.5615818564552 0 0 0
322 1 2.0769701684405066 10.263333061639285 13.337773241062985 0 0 0
323 1 4.799717405338386 10.26333387078651 13.33777577633877 0 0 0
324 1 3.9148795651594757 8.979205968689067 11.113968367245159 0 0 0
325 1 6.637629584844573 8.979208040303325 11.113969703456842 0 0 0
326 1 5.752848279912445 7.695081501977219 8.890160546665323 0 0 0
327 1 8.475596060522596 7.695082551984944 8.890163251241443 0 0 0
328 1 7.590861398185646 6.410960708546593 6.666355919330341 0 0 0
329 1 10.313611035382252 6.41096258523155 6.666357159606113 0 0 0
330 1 9.428890351329452 5.1268369961389775 4.442548294734143 0 0 0
331 1 12.15163737949025 5.126837700833518 4.44255040442682 0 0 0
332 1 11.266911107225576 3.842718509441248 2.21874378083386 0 0 0
333 1 13.989659412824334 3.8427197762479763 2.2187443176175234 0 0 0
334 1 13.10494125802685 2.5586129301757827 44.47106128134297 0 0 -1
335 1 15.82768690774116 2.558613023878967 -0.005062445193036755 0 0 0
336 1 1.056102604114321 16.683801842140763 20.009193872660195 0 0 0
337 1 0.17111470254391356 15.399730282232008 17.785387798488166 0 0 0
338 1 2.8938599113751775 15.39973016909471 17.785386574530943 0 0 0
339 1 2.008918672834576 14.115637920931219 15.561581602681697 0 0 0
340 1 4.731661492803268 14.11563671433554 15.561581081082428 0 0 0
341 1 3.8467487004303624 12.831532646973017 13.337775587283923 0 0 0
342 1 6.56949270578976 12.831531990616721 13.337773702603345 0 0 0
343 1 5.684595647673322 11.54743838455006 11.113969481592562 0 0 0
344 1 8.407337606680592 11.547436816734251 11.11396835256302 0 0 0
345 1 7.522462934729464 10.263333931333946 8.890163187527364 0 0 0
346 1 10.24520627339142 10.263332981157014 8.89016104377876 0 0 0
347 1 9.360374784201587 8.979207948715556 6.666357108692015 0 0 0
348 1 12.083116786983163 8.979206389613205 6.666355857463872 0 0 0
349 1 11.198341257391851 7.695082484055054 4.442550489721363 0 0 0
350 1 13.92108489069465 7.695081668403945 4.44254865581804 0 0 0
351 1 13.036356108831246 6.410962461340912 2.21874441487863 0 0 0
352 1 15.75909889764453 6.410961278123871 2.2187435957274597 0 0 0
353 1 14.874382465667766 5.126837621334586 -0.005062297438078946 0 0 0
354 1 17.597127155539816 5.126837271033737 44.47106141938373 0 0 -1
355 1 0.9885384915963473 20.536059454500343 22.23299988786687 0 0 0
356 1 0.10346111520757077 19.251973525717556 20.00919392099217 0 0 0
357 1 2.8262073011344846 19.25197386822228 20.00919374687675 0 0 0
358 1 1.9411400334681204 17.96788135704533 17.785386871204874 0 0 0
359 1 4.663885599221253 17.967881407497043 17.78538759242783 0 0 0
360 1 3.7788479206780474 16.683801776433135 15.56158119046258 0 0 0
361 1 6.501595085204441 16.683802552111043 15.561581549647753 0 0 0
362 1 5.616605061688188 15.399730006950836 13.337774000210711 0 0 0
363 1 8.33935160548391 15.399730499607644 13.337775284636537 0 0 0
364 1 7.454406897716732 14.115636684710514 11.113968460754208 0 0 0
365 1 10.177154871133878 14.115637834907014 11.113969358949237 0 0 0
366 1 9.29223806141288 12.83153192230411 8.890161237229828 0 0 0
367 1 12.014985294808753 12.831532717668239 8.890162834482839 0 0 0
368 1 11.130083242638337 11.547436878830355 6.666355891555099 0 0 0
369 1 13.852831370865529 11.547438070106093 6.66635700562927 0 0 0
370 1 12.967951885950754 10.263333010651674 4.442548711000832 0 0 0
371 1 15.690699144133122 10.263333815224428 4.442550201766326 0 0 0
372 1 14.805862529334965 8.979206481130836 2.2187435312428523 0 0 0
373 1 17.528610264971096 8.979207498404088 2.218744453438763 0 0 0
374 1 16.643830656438276 7.69508173276439 44.47106138175906 0 0 -1
375 1 0.9211051856179735 24.388356080659594 24.456806446143435 0 0 0
376 1 0.03598206466241723 23.104250650123152 22.23299974982448 0 0 0
377 1 2.758728104874834 23.104250908508813 22.232999837046236 0 0 0
378 1 1.873624774828334 21.82014736485624 20.00919363465951 0 0 0
379 1 4.59637006752568 21.82014727720954 20.00919383492161 0 0 0
380 1 3.7112841700642427 20.53605958337046 17.785387435510792 0 0 0
381 1 6.4340296568028 20.536059595160406 17.785387099632434 0 0 0
382 1 5.5489528806309645 19.251973928111155 15.561581368629216 0 0 0
383 1 8.271697358163975 19.25197347402184 15.561581157454942 0 0 0
384 1 7.386631296355938 17.96788153965874 13.33777514402515 0 0 0
385 1 10.10937601798117 17.967881210790637 13.33777432974314 0 0 0
386 1 9.224340606421737 16.68380258883815 11.113969134921089 0 0 0
387 1 11.947084364068164 16.68380181985614 11.113968494282595 0 0 0
388 1 11.062097164641086 15.399730567534677 8.890162752813103 0 0 0
389 1 13.784841259656668 15.399729956692994 8.89016164146182 0 0 0
390 1 12.89990021440958 14.115637798127748 6.666356835386949 0 0 0
391 1 15.622643709331536 14.115636908277809 6.666355919640262 0 0 0
392 1 14.737730661877826 12.831532711939996 4.442550197785761 0 0 0
393 1 17.460474544699743 12.83153201118895 4.442549079555099 0 0 0
394 1 16.575576615590993 11.547438004663116 2.2187443681892236 0 0 0
395 1 1.8062368715133148 25.672455137934893 22.2329999760976 0 0 0
396 1 4.528981714056117 25.672454868846017 22.23299968075665 0 0 0
397 1 3.643850617942096 24.388356064909516 20.009193887871234 0 0 0
398 1 6.366595826088904 24.38835597069326 20.009193644615678 0 0 0
399 1 5.481473394102621 23.10425080186184 17.785387280928365 0 0 0
400 1 8.2042186803416 23.104250730069996 17.785387340432244 0 0 0
401 1 7.319115400717088 21.820147216764514 15.56158123019577 0 0 0
402 1 10.041861302342378 21.820147430704626 15.561581302751591 0 0 0
403 1 9.156774923870012 20.536059486696423 13.33777452538399 0 0 0
404 1 11.879520796932612 20.53605967348027 13.337774999242292 0 0 0
405 1 10.994442723909913 19.251973425837466 11.113968573864415 0 0 0
406 1 13.71718926422597 19.25197392488328 11.113968986540915 0 0 0
407 1 12.83212137995855 17.967881147857227 8.890161816161584 0 0 0
408 1 15.554867768837138 17.967881562572405 8.890162571345574 0 0 0
409 1 14.669829872153555 16.683801830418815 6.666355988135556 0 0 0
410 1 17.392576700258587 16.683802448853008 6.666356630166291 0 0 0
411 1 16.50758676333143 15.399729949810407 4.442549216482602 0 0 0
412 1 7.2517273042851285 25.67245496298195 17.78538722328362 0 0 0
413 1 9.9744730589052 25.67245509166886 17.78538735395804 0 0 0
414 1 9.089341415204798 24.388356037647274 15.561581205014088 0 0 0
415 1 11.812086776694144 24.388355980417362 15.561581243990819 0 0 0
416 1 10.926964285850374 23.1042508240907 13.337774910448829 0 0 0
417 1 13.649709590893982 23.10425075375848 13.337774667633132 0 0 0
418 1 12.764606878114458 21.82014749350542 11.11396884804704 0 0 0
419 1 15.487351668185088 21.820147184694807 11.113968633015427 0 0 0
420 1 14.60226632966539 20.536059729078808 8.890162521212886 0 0 0
421 1 17.32501124662509 20.536059490361673 8.890162024950246 0 0 0
422 1 16.43993471910765 19.251973936504786 6.6663564744686985 0 0 0
423 1 12.697218385643916 25.672455005303366 13.33777475450193 0 0 0
424 1 14.534832080486035 24.388355900616137 11.113968691960306 0 0 0
425 1 17.257577951873085 24.388356097777304 11.113968740556075 0 0 0
426 1 16.372454987997976 23.104250704311 8.890162108410099 0 0 0
427 1 1.3292715411755498 1.27450426076254 15.561582434507887 0 0 0
2715 1 18.1427092835562 25.67245502678123 8.890162430268973 0 0 0
320 1 0.2391009952643532 11.547436697760116 15.561581176627632 0 0 0
430 1 1.2606536566605937 5.126836894637783 17.785385405399452 0 0 0
431 1 0.3759339438163589 3.8427206345339493 15.561582262546917 0 0 0
432 1 3.098673545758037 3.8427180016774707 15.561580667940607 0 0 0
433 1 2.2139609692309405 2.5586137155832476 13.337776333032807 0 0 0
434 1 4.936703561735827 2.55861240629269 13.337772874698604 0 0 0
435 1 4.052016804408805 1.274504192227496 11.113969771553391 0 0 0
436 1 6.7747570056467925 1.274501822650928 11.113968288054718 0 0 0
198 1 0.23910500881889774 11.547438505218627 11.113969276958596 0 0 0
2683 1 18.142709267085625 25.672454995850874 4.4425495882066315 0 0 0
439 1 1.1921385625532852 8.979208002149335 20.009194346832775 0 0 0