LAMMPS data file via write_data, version 2 Aug 2023, timestep = 15678, units = metal

8400 atoms
3 atom types

0.07952253725171787 54.37998781691615 xlo xhi
0.10794393463211037 51.236974827409426 ylo yhi
-22.329312911393238 66.795316918572 zlo zhi

Masses

1 183.84
2 1.008
3 4.0026

Atoms # atomic

1 1 0.6564776295850253 43.56750068740961 0.00486107974944467 0 0 0
2 1 0.5883542336443064 47.40224957913228 2.16475828147773 0 0 0
3 1 54.00652411069227 46.123964376078895 0.004845943065470566 -1 0 0
4 1 2.421082095011439 46.12396437607868 0.004845943065228972 0 0 0
5 1 53.938343890238095 49.958791771241124 2.1647914203863183 -1 0 0
6 1 2.352901874557468 49.95879177124111 2.1647914203863974 0 0 0
7 1 1.4706727849140528 48.680514368670224 0.004808002234795899 0 0 0
8 1 4.185696048896539 48.68051436866787 0.004808002233425762 0 0 0
9 1 0.7921988992566661 35.8980669228303 0.004957408154041273 0 0 0
10 1 0.7246109678652282 39.732764330893936 2.1648373707277333 0 0 0
11 1 54.14265455955864 38.454449357060085 0.00489990798184223 -1 0 0
12 1 2.5572125438772635 38.45444935706014 0.0048999079824850545 0 0 0
13 1 0.6564070194629795 43.56747411478585 4.392475035196777 0 0 0
14 1 54.074674370159684 42.2892249168143 2.16477908069001 -1 0 0
15 1 2.4892323544785953 42.28922491681491 2.1647790806893465 0 0 0
16 1 1.6070043267253478 41.0109701143929 0.004861287083728422 0 0 0
17 1 4.322027590707797 41.010970114393174 0.004861287083005484 0 0 0
18 1 0.588387293175096 47.4022133544448 6.622464350883419 0 0 0
19 1 54.006547345601525 46.12401845875882 4.392437610615282 -1 0 0
20 1 2.4211053299193797 46.124018458757845 4.392437610615658 0 0 0
21 1 1.5387488260652449 44.84576438853131 2.164820022589505 0 0 0
22 1 4.2537720900483675 44.845764388530036 2.1648200225902023 0 0 0
23 1 3.3715008935693147 43.567500687409485 0.004861079749746573 0 0 0
24 1 6.086524157552165 43.567500687409925 0.004861079748979266 0 0 0
25 1 53.938377502203686 49.958748792085565 6.622437862722074 -1 0 0
26 1 2.3529354865225325 49.95874879208579 6.622437862721573 0 0 0
27 1 1.470623171705089 48.68050650624102 4.392456176004854 0 0 0
28 1 4.185646435689524 48.680506506240576 4.392456176004695 0 0 0
29 1 3.3033774976280124 47.40224957913172 2.1647582814793287 0 0 0
30 1 6.018400761610869 47.40224957913216 2.1647582814788975 0 0 0
31 1 5.13610535899429 46.12396437607992 0.0048459430649663 0 0 0
32 1 7.851128622977198 46.12396437608009 0.004845943064348 0 0 0
33 1 5.067925138540131 49.95879177124131 2.1647914203854373 0 0 0
34 1 7.782948402524031 49.958791771240946 2.1647914203851544 0 0 0
35 1 6.9007193128791995 48.680514368669314 0.004808002233599218 0 0 0
36 1 9.615742576861033 48.68051436866677 0.004808002232101204 0 0 0
37 1 0.9276628308631664 28.228831606369567 0.005077772919920722 0 0 0
38 1 0.8598980503706277 32.063573299020064 2.1649905225918236 0 0 0
39 1 54.277925237380956 30.78526626303515 0.005045684244631003 -1 0 0
40 1 2.69248322169882 30.785266263034618 0.005045684244462557 0 0 0
41 1 0.7922675962228124 35.89814376749164 4.392636285862042 0 0 0
42 1 54.210237844782704 34.61991641244785 2.1649589770674385 -1 0 0
43 1 2.6247958291015046 34.61991641244867 2.1649589770669926 0 0 0
44 1 1.7423599829654528 33.341670057255584 0.004968199993330043 0 0 0
45 1 4.457383246948389 33.34167005725596 0.004968199993186033 0 0 0
46 1 0.7245218995196958 39.73283563844732 6.622603189142981 0 0 0
47 1 54.142616885580715 38.454569360275364 4.392576690311211 -1 0 0
48 1 2.557174869899807 38.45456936027609 4.3925766903106815 0 0 0
49 1 1.6747270752352823 37.17628589397017 2.1649120805927846 0 0 0
50 1 4.389750339218777 37.176285893969876 2.1649120805926603 0 0 0
51 1 3.5072221632402565 35.898066922830424 0.0049574081536166706 0 0 0
52 1 6.2222454272234655 35.89806692283003 0.004957408153003129 0 0 0
53 1 0.6564782355749615 43.567559725079036 8.85265312007598 0 0 0
54 1 54.07459630742563 42.28926879012684 6.6225630310243115 -1 0 0
55 1 2.4891542917434397 42.28926879012598 6.622563031024004 0 0 0
56 1 1.6068897679362437 41.0109794773527 4.392490256143633 0 0 0
57 1 4.321913031919968 41.010979477352635 4.39249025614445 0 0 0
58 1 3.43963423184892 39.73276433089331 2.164837370727466 0 0 0
59 1 6.154657495832092 39.732764330893296 2.1648373707279753 0 0 0
60 1 5.272235807860653 38.454449357060795 0.004899907982282335 0 0 0
61 1 7.987259071844185 38.454449357060284 0.0048999079833755505 0 0 0
62 1 0.5883643129021839 47.40231948509504 11.08259371661746 0 0 0
63 1 54.00647906790651 46.1240057693901 8.8525527995502 -1 0 0
64 1 2.4210370522256817 46.124005769391175 8.852552799550203 0 0 0
65 1 1.5387767738143587 44.8457350661354 6.622478216742437 0 0 0
66 1 4.253800037797144 44.845735066134885 6.622478216741625 0 0 0
67 1 3.3714302834458882 43.56747411478451 4.392475035196274 0 0 0
68 1 6.086453547430512 43.56747411478458 4.392475035195898 0 0 0
69 1 5.204255618462285 42.28922491681446 2.164779080689456 0 0 0
70 1 7.919278882444351 42.28922491681523 2.1647790806886937 0 0 0
71 1 7.037050854689828 41.010970114392954 0.004861287082560633 0 0 0
72 1 9.752074118672653 41.01097011439346 0.004861287083069928 0 0 0
73 1 53.93831990099492 49.95874571390461 11.08254060502502 -1 0 0
74 1 2.352877885314081 49.95874571390565 11.082540605025308 0 0 0
75 1 1.470667456353178 48.68047831578933 8.85246851309957 0 0 0
76 1 4.185690720336783 48.680478315789976 8.85246851309873 0 0 0
77 1 3.303410557158445 47.40221335444618 6.622464350882113 0 0 0
78 1 6.018433821140701 47.402213354446054 6.622464350881988 0 0 0
79 1 5.136128593902208 46.12401845875717 4.392437610615227 0 0 0
80 1 7.851151857883964 46.124018458757845 4.392437610615456 0 0 0
81 1 6.968795354030962 44.84576438853026 2.164820022588851 0 0 0
82 1 9.683818618014168 44.845764388529076 2.1648200225889442 0 0 0
83 1 8.801547421535753 43.56750068740922 0.004861079748544475 0 0 0
84 1 11.51657068551857 43.567500687409414 0.004861079748311757 0 0 0
85 1 5.067958750506542 49.95874879208721 6.62243786272196 0 0 0
86 1 7.7829820144899315 49.95874879208705 6.622437862721639 0 0 0
87 1 6.900669699672627 48.68050650624195 4.392456176004473 0 0 0
88 1 9.615692963656857 48.68050650624266 4.392456176005028 0 0 0
89 1 8.733424025593242 47.40224957913126 2.164758281480184 0 0 0
90 1 11.448447289574695 47.402249579131315 2.1647582814799016 0 0 0
91 1 10.566151886960899 46.12396437607964 0.004845943063150582 0 0 0
92 1 13.28117515094359 46.12396437608085 0.00484594306198745 0 0 0
93 1 10.497971666506382 49.95879177124058 2.164791420383838 0 0 0
94 1 13.212994930490217 49.95879177124086 2.164791420383262 0 0 0
95 1 12.33076584084275 48.68051436866742 0.004808002231478268 0 0 0
96 1 15.045789104824223 48.68051436866713 0.004808002229841519 0 0 0
97 1 1.0626911780697128 20.55968807344085 0.005049571734132054 0 0 0
98 1 0.995335898497877 24.394281637230332 2.165112853725191 0 0 0
99 1 0.11273127813917821 23.116139122653433 0.005113520113667489 0 0 0
100 1 2.827754542122185 23.11613912265321 0.005113520113781409 0 0 0
101 1 0.9277865379769171 28.22888956999096 4.392781700678647 0 0 0
102 1 54.345769134695246 26.95066202898648 2.165102012033376 -1 0 0
103 1 2.7603271190146317 26.950662028987267 2.165102012033816 0 0 0
104 1 1.877867080570015 25.672470559705147 0.0050893312637208 0 0 0
105 1 4.592890344553188 25.672470559705754 0.005089331263127291 0 0 0
106 1 0.8598060407539614 32.06359943252866 6.622762781819939 0 0 0
107 1 54.27791343846153 30.785361115709588 4.392739973348296 -1 0 0
108 1 2.6924714227807827 30.785361115708685 4.392739973348168 0 0 0
109 1 1.810064171751038 29.507098989905813 2.1650396826149008 0 0 0
110 1 4.525087435734567 29.507098989905142 2.165039682615231 0 0 0
111 1 3.642686094846878 28.228831606368328 0.00507777292065302 0 0 0
112 1 6.357709358831669 28.22883160636831 0.005077772920480495 0 0 0
113 1 0.7922696906189972 35.898220758556484 8.852705540653675 0 0 0
114 1 54.21022598916568 34.61999426493293 6.622707734457133 -1 0 0
115 1 2.6247839734846172 34.61999426493132 6.622707734456232 0 0 0
116 1 1.7422947966210378 33.341771147079946 4.392692069235174 0 0 0
117 1 4.457318060603434 33.341771147080706 4.392692069234961 0 0 0
118 1 3.5749213143527974 32.06357329902051 2.1649905225912702 0 0 0
119 1 6.289944578334716 32.06357329902187 2.164990522591646 0 0 0
120 1 5.407506485681091 30.785266263035687 0.005045684244853394 0 0 0
121 1 8.122529749662254 30.785266263035812 0.005045684245629915 0 0 0
122 1 0.7245175774847697 39.73292568045114 11.082715763933589 0 0 0
123 1 54.14258027770917 38.454656173057906 8.85267592349462 -1 0 0
124 1 2.557138262027232 38.45465617305711 8.85267592349373 0 0 0
125 1 1.674727590193601 37.17637372561375 6.622635260636667 0 0 0
126 1 4.389750854176287 37.176373725614376 6.622635260637146 0 0 0
127 1 3.507290860205527 35.89814376749215 4.392636285861389 0 0 0
128 1 6.222314124189107 35.898143767492314 4.392636285861221 0 0 0
129 1 5.33981909308474 34.61991641244932 2.1649589770671858 0 0 0
130 1 8.05484235706771 34.61991641245008 2.164958977067403 0 0 0
131 1 7.1724065109302275 33.341670057256046 0.004968199993670356 0 0 0
132 1 9.887429774911874 33.34167005725653 0.004968199993427727 0 0 0
133 1 0.6566017328485131 43.56762394537557 13.312707801354552 0 0 0
134 1 54.074733649246575 42.28935105694995 11.082701629276324 -1 0 0
135 1 2.489291633565089 42.28935105694926 11.082701629274844 0 0 0
136 1 1.6068893152433232 41.01111658539478 8.852630319243616 0 0 0
137 1 4.321912579226476 41.0111165853949 8.852630319243525 0 0 0
138 1 3.43954516350287 39.73283563844769 6.622603189143535 0 0 0
139 1 6.154568427486003 39.73283563844729 6.622603189143094 0 0 0
140 1 5.272198133883355 38.454569360275904 4.392576690310661 0 0 0
141 1 7.987221397866851 38.454569360276984 4.392576690310938 0 0 0
142 1 7.104773603202125 37.176285893970565 2.164912080592962 0 0 0
143 1 9.819796867185886 37.17628589397062 2.1649120805919275 0 0 0
144 1 8.937268691206574 35.89806692283062 0.004957408152271333 0 0 0
145 1 11.652291955190076 35.898066922830566 0.00495740815125744 0 0 0
146 1 0.5884016058274362 47.40221204432477 15.542775927572812 0 0 0
147 1 54.00655585515672 46.12404149133165 13.31272001966882 -1 0 0
148 1 2.4211138394763836 46.12404149133146 13.312720019669072 0 0 0
149 1 1.5387419387217487 44.845830518515164 11.082672291818705 0 0 0
150 1 4.253765202704859 44.84583051851554 11.082672291817923 0 0 0
151 1 3.371501499557754 43.56755972507827 8.85265312007453 0 0 0
152 1 6.08652476354221 43.567559725078446 8.852653120074264 0 0 0
153 1 5.204177555727236 42.289268790125014 6.622563031023485 0 0 0
154 1 7.919200819709998 42.28926879012327 6.622563031023698 0 0 0
155 1 7.036936295904505 41.01097947735287 4.392490256144183 0 0 0
156 1 9.751959559889128 41.01097947735254 4.392490256143699 0 0 0
157 1 8.869680759815457 39.73276433089283 2.1648373707284305 0 0 0
158 1 11.584704023800008 39.7327643308928 2.1648373707288107 0 0 0
159 1 10.702282335827949 38.45444935706113 0.004899907983667456 0 0 0
160 1 13.417305599811984 38.45444935706023 0.0048999079833062335 0 0 0
161 1 53.93833935466654 49.95874084675194 15.54273810147667 -1 0 0
162 1 2.3528973389850725 49.958740846751816 15.542738101476685 0 0 0
163 1 1.470655322971658 48.68053008723741 13.312663299365266 0 0 0
164 1 4.185678586954996 48.680530087237045 13.312663299364973 0 0 0
165 1 3.303387576885644 47.40231948509625 11.082593716617271 0 0 0
166 1 6.018410840869048 47.40231948509628 11.082593716617664 0 0 0
167 1 5.136060316208977 46.124005769389846 8.852552799549962 0 0 0
168 1 7.851083580191865 46.12400576939038 8.852552799548997 0 0 0
169 1 6.968823301780113 44.8457350661344 6.622478216742041 0 0 0
170 1 9.683846565762382 44.84573506613366 6.622478216742312 0 0 0
171 1 8.801476811414002 43.56747411478403 4.392475035194993 0 0 0
172 1 11.516500075399431 43.56747411478371 4.392475035194994 0 0 0
173 1 10.634302146427837 42.28922491681531 2.1647790806889113 0 0 0
174 1 13.34932541041047 42.289224916815606 2.1647790806884712 0 0 0
175 1 12.467097382655325 41.01097011439386 0.004861287082085225 0 0 0
176 1 15.182120646638033 41.01097011439464 0.004861287081659771 0 0 0
177 1 5.067901149297754 49.95874571390651 11.082540605025798 0 0 0
178 1 7.782924413281037 49.958745713906566 11.082540605026153 0 0 0
179 1 6.900713984319321 48.68047831579005 8.852468513098888 0 0 0
180 1 9.615737248302432 48.68047831579089 8.852468513098007 0 0 0
181 1 8.733457085123794 47.402213354445735 6.622464350881811 0 0 0
182 1 11.44848034910525 47.40221335444522 6.622464350882305 0 0 0
183 1 10.566175121865648 46.124018458756844 4.392437610615708 0 0 0
184 1 13.281198385847366 46.124018458757426 4.392437610616406 0 0 0
185 1 12.398841881997376 44.84576438852864 2.1648200225881964 0 0 0
186 1 15.113865145980169 44.845764388527016 2.1648200225878633 0 0 0
187 1 14.231593949500821 43.56750068740983 0.004861079747560443 0 0 0
188 1 16.94661721348388 43.56750068740903 0.004861079747970929 0 0 0
189 1 10.4980052784731 49.958748792087654 6.62243786272156 0 0 0
190 1 13.213028542457119 49.958748792087384 6.622437862720951 0 0 0
191 1 12.330716227639853 48.680506506243525 4.392456176004226 0 0 0
192 1 15.04573949162358 48.68050650624481 4.392456176003737 0 0 0
193 1 14.163470553556449 47.402249579130775 2.164758281480472 0 0 0
194 1 16.878493817537425 47.40224957913144 2.164758281480135 0 0 0
195 1 15.99619841492667 46.12396437608152 0.0048459430611315565 0 0 0
196 1 18.71122167891004 46.12396437608164 0.0048459430605914825 0 0 0
197 1 15.928018194473594 49.95879177124052 2.164791420382307 0 0 0
198 1 18.643041458457375 49.958791771240804 2.164791420382019 0 0 0
199 1 17.76081236880642 48.68051436866724 0.004808002229441202 0 0 0
200 1 20.475835632788137 48.680514368666785 0.004808002228996815 0 0 0
201 1 1.198149173575379 12.890374992646377 0.004904365168021155 0 0 0
202 1 1.1306821504794642 16.72490228882224 2.1649652705464093 0 0 0
203 1 0.2481975211026171 15.446718781943051 0.004963623829381523 0 0 0
204 1 2.9632207850856243 15.44671878194272 0.004963623829263199 0 0 0
205 1 1.0628699600781968 20.55961049107025 4.392727757206959 0 0 0
206 1 0.1804517954922547 19.281348538880447 2.1649556586914906 0 0 0
207 1 2.8954750594758636 19.281348538880163 2.1649556586911007 0 0 0
208 1 2.013134732721787 18.00314540236237 0.005016281269850899 0 0 0
209 1 4.728157996705374 18.003145402362396 0.005016281269504585 0 0 0
210 1 0.9952881566457822 24.394259498486047 6.62283426879845 0 0 0
211 1 0.11282435191995668 23.11605730428955 4.392816426250329 0 0 0
212 1 2.827847615903264 23.116057304289225 4.3928164262506115 0 0 0
213 1 1.9452306454094817 21.837906153628882 2.1650689462339328 0 0 0
214 1 4.6602539093924005 21.83790615362934 2.1650689462338444 0 0 0
215 1 3.7777144420540956 20.559688073440558 0.005049571733661798 0 0 0
216 1 6.492737706037549 20.559688073441066 0.005049571733889285 0 0 0
217 1 0.9277353665602714 28.2288701088415 8.85277841567856 0 0 0
218 1 54.34574977152695 26.95062003129384 6.622801574386184 -1 0 0
219 1 2.7603077558454463 26.950620031292555 6.622801574385531 0 0 0
220 1 1.8778649186093377 25.672446308085156 4.392805894012381 0 0 0
221 1 4.592888182592636 25.672446308084986 4.39280589401198 0 0 0
222 1 3.710359162480134 24.39428163723088 2.1651128537251263 0 0 0
223 1 6.425382426463119 24.394281637230403 2.1651128537241027 0 0 0
224 1 5.542777806104678 23.11613912265398 0.005113520113919666 0 0 0
225 1 8.257801070086972 23.116139122654268 0.005113520114142677 0 0 0
226 1 0.8598676238171032 32.06359025648548 11.082857865654042 0 0 0
227 1 54.27793003426927 30.785357786416828 8.852761778228789 -1 0 0
228 1 2.6924880185885343 30.78535778641651 8.85276177822859 0 0 0
229 1 1.810143746206571 29.507144138209302 6.622745319136063 0 0 0
230 1 4.525167010190288 29.507144138209267 6.622745319136581 0 0 0
231 1 3.6428098019608686 28.228889569991058 4.39278170067969 0 0 0
232 1 6.357833065944646 28.228889569991345 4.39278170067929 0 0 0
233 1 5.475350382998594 26.950662028987285 2.1651020120335334 0 0 0
234 1 8.190373646982424 26.950662028987523 2.16510201203385 0 0 0
235 1 7.307913608536413 25.67247055970604 0.005089331262909718 0 0 0
236 1 10.022936872519193 25.67247055970639 0.005089331262271553 0 0 0
237 1 0.79225212014163 35.89825931319409 13.312846388487554 0 0 0
238 1 54.21027150808896 34.62005248609021 11.082816677470802 -1 0 0
239 1 2.6248294924073923 34.62005248608977 11.08281667747148 0 0 0
240 1 1.7422857110515715 33.341809149831256 8.852776027650027 0 0 0
241 1 4.4573089750351205 33.34180914983151 8.852776027648938 0 0 0
242 1 3.5748293047375506 32.06359943252862 6.622762781819959 0 0 0
243 1 6.28985256872084 32.063599432528136 6.622762781819044 0 0 0
244 1 5.407494686764058 30.785361115708078 4.392739973347366 0 0 0
245 1 8.122517950746357 30.7853611157067 4.392739973347193 0 0 0
246 1 7.240110699718316 29.50709898990521 2.1650396826151375 0 0 0
247 1 9.95513396370235 29.507098989904026 2.165039682615092 0 0 0
248 1 9.07273262281683 28.22883160636742 0.005077772920841498 0 0 0
249 1 11.787755886802353 28.228831606367294 0.005077772921039801 0 0 0
250 1 0.7244731547383371 39.73291995535864 15.54284364752564 0 0 0
251 1 54.14249234032941 38.454718227126406 13.31280370967106 -1 0 0
252 1 2.55705032464766 38.45471822712613 13.312803709670755 0 0 0
253 1 1.6746956542974698 37.17650642086842 11.08276097310877 0 0 0
254 1 4.3897189182812655 37.17650642086793 11.082760973108876 0 0 0
255 1 3.5072929546016227 35.89822075855579 8.85270554065324 0 0 0
256 1 6.222316218585236 35.898220758555325 8.852705540653378 0 0 0
257 1 5.339807237467413 34.619994264932366 6.622707734455212 0 0 0
258 1 8.054830501450905 34.619994264932224 6.622707734454327 0 0 0
259 1 7.172341324585722 33.34177114708025 4.3926920692350855 0 0 0
260 1 9.88736458856733 33.34177114707997 4.392692069233849 0 0 0
261 1 9.004967842316818 32.06357329902184 2.1649905225909194 0 0 0
262 1 11.719991106298744 32.063573299022856 2.1649905225905877 0 0 0
263 1 10.837553013643742 30.785266263036554 0.005045684245906913 0 0 0
264 1 13.552576277626144 30.785266263036934 0.005045684246263099 0 0 0
265 1 0.6565814700167284 43.567577756547564 17.772941107647476 0 0 0
266 1 54.07475330599113 42.28941016594938 15.542807431764226 -1 0 0
267 1 2.489311290310069 42.28941016594879 15.542807431763746 0 0 0
268 1 1.6069377955278101 41.011154186009634 13.312790974803047 0 0 0
269 1 4.321961059510552 41.01115418600913 13.312790974802423 0 0 0
270 1 3.4395408414678803 39.732925680449235 11.082715763933129 0 0 0
271 1 6.154564105451172 39.73292568044949 11.08271576393245 0 0 0
272 1 5.272161526010567 38.454656173057174 8.852675923494541 0 0 0
273 1 7.987184789993722 38.45465617305657 8.852675923492745 0 0 0
274 1 7.104774118160243 37.17637372561495 6.622635260636973 0 0 0
275 1 9.819797382144056 37.17637372561555 6.622635260637235 0 0 0
276 1 8.937337388172041 35.89814376749244 4.392636285860613 0 0 0
277 1 11.652360652154853 35.898143767491845 4.3926362858606165 0 0 0
278 1 10.769865621050775 34.619916412450756 2.1649589770676605 0 0 0
279 1 13.484888885033447 34.61991641245157 2.1649589770674917 0 0 0
280 1 12.602453038892781 33.34167005725636 0.004968199993719206 0 0 0
281 1 15.31747630287347 33.34167005725613 0.004968199993773302 0 0 0
282 1 0.5883862347633868 47.40222109817563 20.002978981455616 0 0 0
283 1 54.00656162802934 46.12399093349621 17.77291501130263 -1 0 0
284 1 2.4211196123487984 46.12399093349631 17.772915011302963 0 0 0
285 1 1.538893902929139 44.845800795166184 15.542811968052478 0 0 0
286 1 4.2539171669120766 44.845800795165886 15.542811968053089 0 0 0
287 1 3.3716249968316347 43.56762394537473 13.31270780135429 0 0 0
288 1 6.086648260813891 43.56762394537418 13.3127078013548 0 0 0
289 1 5.204314897547051 42.2893510569502 11.0827016292747 0 0 0
290 1 7.919338161529691 42.289351056950096 11.08270162927409 0 0 0
291 1 7.036935843209173 41.01111658539346 8.852630319243453 0 0 0
292 1 9.75195910719231 41.011116585392664 8.852630319243126 0 0 0
293 1 8.869591691469617 39.73283563844811 6.622603189142971 0 0 0
294 1 11.584614955453564 39.73283563844751 6.62260318914156 0 0 0
295 1 10.702244661850335 38.45456936027737 4.392576690310355 0 0 0
296 1 13.417267925833544 38.45456936027838 4.392576690310934 0 0 0
297 1 12.534820131169841 37.17628589397062 2.1649120805912103 0 0 0
298 1 15.249843395153508 37.17628589397121 2.164912080590958 0 0 0
299 1 14.36731521917391 35.89806692283085 0.004957408150124875 0 0 0
300 1 17.082338483157184 35.89806692283046 0.004957408148913347 0 0 0
301 1 53.938352885553655 49.95872091347431 20.00294592313534 -1 0 0
302 1 2.3529108698734844 49.95872091347377 20.002945923135258 0 0 0
303 1 1.470699011092823 48.680444983123095 17.772866130216777 0 0 0
304 1 4.185722275076206 48.68044498312379 17.772866130217427 0 0 0
305 1 3.3034248698109 47.40221204432515 15.54277592757331 0 0 0
306 1 6.018448133794738 47.4022120443249 15.54277592757297 0 0 0
307 1 5.136137103459486 46.12404149133115 13.312720019668795 0 0 0
308 1 7.851160367443704 46.124041491332 13.312720019668497 0 0 0
309 1 6.968788466687932 44.84583051851432 11.082672291817582 0 0 0
310 1 9.683811730671021 44.845830518515164 11.082672291817454 0 0 0
311 1 8.801548027524762 43.56755972507908 8.852653120073635 0 0 0
312 1 11.516571291508788 43.56755972507945 8.852653120073015 0 0 0
313 1 10.634224083693583 42.2892687901224 6.622563031023689 0 0 0
314 1 13.349247347676844 42.289268790120865 6.622563031023674 0 0 0
315 1 12.466982823874044 41.01097947735289 4.392490256143516 0 0 0
316 1 15.182006087857843 41.01097947735337 4.3924902561427785 0 0 0
317 1 14.299727287783776 39.732764330891904 2.164837370729225 0 0 0
318 1 17.014750551767968 39.73276433089205 2.16483737072966 0 0 0
319 1 16.1323288637967 38.45444935706072 0.004899907983266459 0 0 0
320 1 18.847352127781164 38.4544493570604 0.004899907982885794 0 0 0
321 1 5.067920602969252 49.958740846752036 15.542738101475775 0 0 0
322 1 7.782943866951631 49.95874084675137 15.542738101475202 0 0 0
323 1 6.900701850938728 48.680530087236534 13.312663299364745 0 0 0
324 1 9.61572511492276 48.68053008723622 13.312663299364276 0 0 0
325 1 8.733434104852796 47.40231948509826 11.08259371661742 0 0 0
326 1 11.448457368837165 47.402319485100065 11.082593716617335 0 0 0
327 1 10.566106844175309 46.124005769389 8.852552799549299 0 0 0
328 1 13.281130108158747 46.12400576938905 8.852552799548398 0 0 0
329 1 12.39886982974446 44.8457350661336 6.622478216743045 0 0 0
330 1 15.113893093725942 44.84573506613203 6.622478216743782 0 0 0
331 1 14.231523339383877 43.56747411478441 4.392475035194583 0 0 0
332 1 16.946546603367896 43.56747411478441 4.39247503519453 0 0 0
333 1 16.06434867439347 42.289224916815456 2.1647790806880103 0 0 0
334 1 18.77937193837579 42.28922491681589 2.1647790806884264 0 0 0
335 1 17.89714391062108 41.01097011439526 0.004861287081550597 0 0 0
336 1 20.612167174604068 41.010970114396365 0.004861287081139841 0 0 0
337 1 10.497947677264177 49.95874571390704 11.082540605025793 0 0 0
338 1 13.212970941247178 49.95874571390721 11.082540605025818 0 0 0
339 1 12.330760512285924 48.68047831579149 8.85246851309683 0 0 0
340 1 15.045783776269877 48.68047831579197 8.852468513096163 0 0 0
341 1 14.1635036130889 47.40221335444452 6.622464350881652 0 0 0
342 1 16.878526877070534 47.40221335444383 6.622464350881177 0 0 0
343 1 15.996221649828842 46.12401845875712 4.392437610616515 0 0 0
344 1 18.711244913811115 46.1240184587571 4.392437610616946 0 0 0
345 1 17.82888840996284 44.84576438852668 2.1648200225870617 0 0 0
346 1 20.543911673946017 44.845764388525325 2.1648200225869667 0 0 0
347 1 19.661640477466406 43.56750068740899 0.004861079747773318 0 0 0
348 1 22.376663741448894 43.56750068740903 0.00486107974734286 0 0 0
349 1 15.928051806439893 49.95874879208802 6.6224378627205365 0 0 0
350 1 18.643075070423464 49.95874879208766 6.622437862719933 0 0 0
351 1 17.76076275560681 48.680506506244804 4.39245617600392 0 0 0
352 1 20.475786019590377 48.68050650624611 4.39245617600347 0 0 0
353 1 19.59351708151924 47.40224957913026 2.164758281480967 0 0 0
354 1 22.308540345501232 47.40224957913055 2.1647582814806903 0 0 0
355 1 21.426244942893394 46.12396437608275 0.004845943059606743 0 0 0
356 1 24.141268206877125 46.12396437608358 0.00484594305943796 0 0 0
357 1 21.35806472244018 49.958791771241025 2.1647914203803906 0 0 0
358 1 24.073087986423086 49.95879177124123 2.164791420380707 0 0 0
359 1 23.190858896771005 48.68051436866769 0.004808002228957466 0 0 0
360 1 25.905882160753638 48.68051436866787 0.0048080022289621665 0 0 0
361 1 1.3340859176360096 5.220962432835044 0.004835957116716246 0 0 0
362 1 1.266058170542604 9.055671361306327 2.1648133505865084 0 0 0
363 1 0.38371909475331695 7.777430839008176 0.004897343536622161 0 0 0
364 1 3.098742358736204 7.777430839007493 0.004897343536299959 0 0 0
365 1 1.1982726036291687 12.890304765886102 4.392627123472384 0 0 0
366 1 0.3157766154470168 11.61214630991042 2.164872758102101 0 0 0
367 1 3.0307998794302664 11.612146309910118 2.164872758102027 0 0 0
368 1 2.148446203751956 10.333902776463528 0.00487299965197316 0 0 0
369 1 4.863469467735627 10.333902776463638 0.00487299965153785 0 0 0
370 1 1.1306242247407414 16.72494541334898 6.622749383324489 0 0 0
371 1 0.24817263233420875 15.446709362513577 4.392676635632306 0 0 0
372 1 2.9631958963166096 15.446709362513415 4.392676635632124 0 0 0
373 1 2.0806939907648268 14.168501650856866 2.16494075473434 0 0 0
374 1 4.795717254747707 14.168501650856909 2.1649407547346025 0 0 0
375 1 3.913172437558748 12.890374992646574 0.004904365168183975 0 0 0
376 1 6.62819570154167 12.89037499264605 0.0049043651683864905 0 0 0
377 1 1.062947463688377 20.559590060368187 8.852848632760233 0 0 0
378 1 0.18049400038661345 19.28140004038827 6.62277997487869 0 0 0
379 1 2.8955172643711395 19.281400040387272 6.622779974878165 0 0 0
380 1 2.013077237625296 18.003144414201145 4.392681686416812 0 0 0
381 1 4.728100501608225 18.003144414201046 4.392681686416832 0 0 0
382 1 3.8457054144622336 16.724902288821628 2.1649652705468396 0 0 0
383 1 6.5607286784448595 16.724902288821074 2.1649652705464586 0 0 0
384 1 5.678244049068279 15.446718781942995 0.004963623828976288 0 0 0
385 1 8.393267313051396 15.446718781942641 0.004963623828808231 0 0 0
386 1 0.9951678168842053 24.39423531696591 11.082862774751748 0 0 0
387 1 0.11271546446859361 23.116043731954058 8.85284000495125 0 0 0
388 1 2.8277387284513007 23.116043731954818 8.852840004951448 0 0 0
389 1 1.9453451534746145 21.837819588846948 6.622826589111564 0 0 0
390 1 4.660368417457529 21.837819588846482 6.622826589111583 0 0 0
391 1 3.777893224060686 20.5596104910704 4.392727757206029 0 0 0
392 1 6.492916488043313 20.559610491070824 4.392727757205935 0 0 0
393 1 5.610498323459241 19.281348538878895 2.16495565869061 0 0 0
394 1 8.325521587442466 19.281348538877626 2.16495565869066 0 0 0
395 1 7.443181260688705 18.003145402362495 0.005016281269311999 0 0 0
396 1 10.158204524671431 18.003145402363113 0.005016281269535157 0 0 0
397 1 0.9276733986859016 28.228887991389623 13.312938874708774 0 0 0
398 1 54.34571079904019 26.950672004786842 11.0828486814484 -1 0 0
399 1 2.7602687833593897 26.950672004787 11.082848681448075 0 0 0
400 1 1.8777135328179513 25.67244369376214 8.852846785469128 0 0 0
401 1 4.5927367968012 25.672443693762347 8.852846785469984 0 0 0
402 1 3.7103114206289227 24.394259498486246 6.62283426879894 0 0 0
403 1 6.425334684613149 24.394259498486136 6.622834268799153 0 0 0
404 1 5.54287087988676 23.116057304290177 4.392816426250316 0 0 0
405 1 8.257894143869771 23.11605730428982 4.392816426249661 0 0 0
406 1 7.375277173374822 21.837906153628612 2.165068946233567 0 0 0
407 1 10.090300437357643 21.837906153628694 2.1650689462329633 0 0 0
408 1 9.20776097002101 20.559688073441425 0.005049571733735354 0 0 0
409 1 11.922784234004771 20.559688073441894 0.005049571733665824 0 0 0
410 1 0.8599493693825365 32.063586723697604 15.542949487809292 0 0 0
411 1 54.27792310164015 30.785338491063968 13.312913110983544 -1 0 0
412 1 2.692481085958741 30.785338491064643 13.312913110983592 0 0 0
413 1 1.8100937953557086 29.5071245553018 11.082861542931445 0 0 0
414 1 4.52511705933956 29.50712455530243 11.082861542930907 0 0 0
415 1 3.642758630544237 28.228870108841022 8.852778415677808 0 0 0
416 1 6.357781894527385 28.22887010884087 8.852778415678635 0 0 0
417 1 5.475331019828517 26.950620031291724 6.622801574385818 0 0 0
418 1 8.19035428381092 26.95062003129097 6.622801574385744 0 0 0
419 1 7.307911446576226 25.672446308084638 4.392805894011371 0 0 0
420 1 10.022934710559815 25.672446308084208 4.392805894011594 0 0 0
421 1 9.140405690445954 24.394281637230225 2.1651128537237416 0 0 0
422 1 11.855428954428888 24.39428163722979 2.165112853722465 0 0 0
423 1 10.972824334069363 23.116139122654463 0.005113520113940096 0 0 0
424 1 13.687847598051714 23.11613912265387 0.005113520113737675 0 0 0
425 1 0.792228270707275 35.89824908889574 17.77296262134796 0 0 0
426 1 54.2103488617241 34.62001857997847 15.542945002760607 -1 0 0
427 1 2.624906846043307 34.62001857997798 15.542945002760522 0 0 0
428 1 1.7424455653518172 33.34180712473648 13.312897848717853 0 0 0
429 1 4.4574688293342515 33.34180712473635 13.3128978487176 0 0 0
430 1 3.5748908877995826 32.063590256485476 11.08285786565366 0 0 0
431 1 6.289914151781856 32.063590256485526 11.082857865654042 0 0 0
432 1 5.407511282571529 30.78535778641715 8.852761778228903 0 0 0
433 1 8.12253454655439 30.78535778641708 8.852761778229095 0 0 0
434 1 7.240190274173423 29.507144138208762 6.622745319137754 0 0 0
435 1 9.955213538156324 29.50714413820859 6.62274531913721 0 0 0
436 1 9.07285632992843 28.228889569990415 4.392781700679101 0 0 0
437 1 11.787879593912754 28.228889569990827 4.392781700677736 0 0 0
438 1 10.905396910967173 26.950662028987164 2.1651020120336866 0 0 0
439 1 13.620420174951576 26.950662028987676 2.165102012033973 0 0 0
440 1 12.73796013650187 25.672470559706618 0.005089331262247143 0 0 0