ITEM: TIMESTEP
1322
ITEM: NUMBER OF ATOMS
2745
ITEM: BOX BOUNDS pp pp pp
2.9736587007952895e-03 3.8118679996874313e+01
-1.6315813025045939e-02 3.5957755559561157e+01
-6.0954192783624654e-03 3.1132295288366542e+01
ITEM: ATOMS id x y z
1 0.634875 28.2487 31.132
2 0.537763 32.1021 2.21845
3 37.7783 30.8185 31.132
4 2.3853 30.8177 31.132
5 37.6819 34.6759 2.21879
6 2.29821 34.6592 2.22148
7 1.4128 33.3885 31.1322
8 4.13757 33.3849 31.1314
9 0.829158 20.5407 31.132
10 0.732045 24.3944 2.21789
11 37.9726 23.11 31.132
12 2.57954 23.1098 31.132
13 0.634935 28.2478 4.44254
14 37.8754 26.9637 2.21795
15 2.48245 26.9629 2.21807
16 1.60721 25.6791 31.132
17 4.32998 25.6788 31.132
18 0.537398 32.1011 6.66833
19 37.7781 30.8169 4.44278
20 2.38578 30.8158 4.44363
21 1.51 29.532 2.21822
22 4.23388 29.5295 2.21839
23 3.35764 28.2481 31.132
24 6.08083 28.2473 31.132
25 37.6788 34.6687 6.67414
26 2.28835 34.6682 6.67391
27 1.41295 33.3837 4.44501
28 4.13929 33.3819 4.44716
29 3.26286 32.095 2.21916
30 5.98959 32.0915 2.21904
31 5.10907 30.8161 31.1319
32 7.83288 30.8152 31.1317
33 5.03052 34.6405 2.22147
34 7.74292 34.6655 2.22
35 6.86305 33.3828 31.1311
36 9.58433 33.3852 31.1319
37 1.02292 12.8338 31.1315
38 0.92618 16.687 2.21773
39 0.0508538 15.4025 31.1317
40 2.77373 15.4023 31.1318
41 0.829203 20.5405 4.44208
42 38.0697 19.2561 2.21778
43 2.67668 19.2559 2.21781
44 1.80144 17.9714 31.1319
45 4.52415 17.9712 31.1319
46 0.732101 24.3942 6.66648
47 37.9726 23.1097 4.44213
48 2.57959 23.1095 4.4422
49 1.70437 21.8251 2.21786
50 4.42709 21.8248 2.21789
51 3.55185 20.5405 31.132
52 6.27453 20.5403 31.132
53 0.634868 28.2481 8.89114
54 37.8754 26.9635 6.66665
55 2.48254 26.9632 6.66686
56 1.60729 25.6787 4.44234
57 4.33013 25.6783 4.44244
58 3.4548 24.394 2.21796
59 6.17766 24.3936 2.21798
60 5.30225 23.1096 31.132
61 8.02498 23.1094 31.1321
62 0.537504 32.1022 11.1163
63 37.778 30.8173 8.89168
64 2.38536 30.8169 8.89215
65 1.51015 29.5322 6.66734
66 4.23336 29.5317 6.66767
67 3.3579 28.2472 4.44282
68 6.08124 28.2465 4.44293
69 5.20564 26.9621 2.21812
70 7.92879 26.962 2.21813
71 7.05286 25.6785 31.1321
72 9.77568 25.6784 31.1321
73 37.6809 34.6725 11.1158
74 2.28819 34.6724 11.1161
75 1.41277 33.386 8.89413
76 4.1363 33.3859 8.89395
77 3.26109 32.1003 6.66914
78 5.98509 32.1001 6.66934
79 5.10981 30.8145 4.44401
80 7.83387 30.8138 4.44382
81 6.95788 29.529 2.21838
82 9.68013 29.5311 2.21826
83 8.80399 28.2471 31.132
84 11.5264 28.2477 31.1321
85 5.01299 34.6685 6.67261
86 7.73802 34.6691 6.6713
87 6.86556 33.3795 4.44654
88 9.58581 33.3842 4.44418
89 8.71002 32.0988 2.21864
90 11.4312 32.101 2.21836
91 10.5551 30.8165 31.132
92 13.277 30.8173 31.1321
93 10.4613 34.6698 2.21866
94 13.1815 34.6714 2.21828
95 12.3056 33.3866 31.1321
96 15.0272 33.3873 31.1321
97 1.21218 5.13828 31.1277
98 1.11511 8.98946 2.21753
99 0.240182 7.70093 31.1287
100 2.96693 7.69822 31.1287
101 1.02306 12.8335 4.44221
102 0.14629 11.5516 2.21758
103 2.87069 11.5502 2.21768
104 1.99489 10.2656 31.1308
105 4.71832 10.2641 31.1311
106 0.926315 16.6866 6.66631
107 0.0509465 15.4023 4.44205
108 2.77379 15.4022 4.4421
109 1.89838 14.1183 2.2177
110 4.6214 14.1176 2.21776
111 3.74605 12.8332 31.1316
112 6.46877 12.8324 31.1318
113 0.829243 20.5404 8.89053
114 38.0697 19.2558 6.66629
115 2.67673 19.2557 6.66634
116 1.80149 17.9713 4.44207
117 4.52422 17.9711 4.4421
118 3.649 16.6867 2.21777
119 6.37171 16.6863 2.21781
120 5.49648 15.4019 31.1319
121 8.21906 15.4014 31.132
122 0.732082 24.3943 11.1149
123 37.9726 23.1097 8.89059
124 2.57961 23.1096 8.89068
125 1.70442 21.825 6.66637
126 4.42712 21.8248 6.66642
127 3.5519 20.5403 4.44212
128 6.2746 20.5401 4.44215
129 5.39939 19.2556 2.21784
130 8.12204 19.2554 2.21787
131 7.24681 17.9709 31.132
132 9.96939 17.9707 31.132
133 0.634798 28.2484 13.3393
134 37.8754 26.9637 11.115
135 2.48242 26.9636 11.1152
136 1.60728 25.6788 8.89085
137 4.33004 25.6787 8.89095
138 3.45483 24.394 6.66658
139 6.17761 24.3939 6.66662
140 5.30235 23.1093 4.44224
141 8.0251 23.1091 4.44225
142 7.14981 21.8246 2.21791
143 9.87248 21.8245 2.21792
144 8.99718 20.5401 31.1321
145 11.7198 20.54 31.1321
146 0.537526 32.103 15.5631
147 37.778 30.8179 13.3395
148 2.38515 30.8179 13.3397
149 1.51 29.5329 11.1156
150 4.23289 29.5328 11.1157
151 3.35775 28.2478 8.89137
152 6.08069 28.2477 8.89144
153 5.20547 26.9629 6.66698
154 7.92839 26.9628 6.66695
155 7.05308 25.678 4.44246
156 9.77592 25.678 4.4424
157 8.90047 24.3936 2.21798
158 11.6231 24.3938 2.21796
159 10.7476 23.1093 31.1321
160 13.4702 23.1094 31.1321
161 37.6808 34.6727 15.5628
162 2.28787 34.6727 15.5631
163 1.41277 33.3877 13.3396
164 4.13561 33.3876 13.3398
165 3.26053 32.1021 11.1165
166 5.98354 32.1022 11.1164
167 5.10854 30.8167 8.89232
168 7.83165 30.8168 8.89214
169 6.95662 29.5315 6.6677
170 9.67965 29.5316 6.66742
171 8.80447 28.2464 4.44282
172 11.5268 28.2473 4.44255
173 10.6514 26.9627 2.21806
174 13.3737 26.9631 2.21802
175 12.4982 25.6786 31.1321
176 15.2207 25.6788 31.1321
177 5.01116 34.6722 11.1164
178 7.73408 34.6722 11.1164
179 6.85967 33.3861 8.89341
180 9.58265 33.3865 8.89263
181 8.70858 32.1002 6.6687
182 11.4306 32.1014 6.66761
183 10.5558 30.8159 4.44306
184 13.2775 30.817 4.44262
185 12.4022 29.5321 2.21814
186 15.1242 29.5328 2.21804
187 14.2487 28.2481 31.1321
188 16.971 28.2484 31.1321
189 10.4595 34.6708 6.66867
190 13.1808 34.6718 6.66746
191 12.3065 33.3861 4.44308
192 15.0278 33.3871 4.44258
193 14.1527 32.102 2.21814
194 16.8744 32.1026 2.218
195 15.9991 30.8178 31.1321
196 18.7212 30.8181 31.132
197 15.9026 34.6722 2.21808
198 18.6242 34.6726 2.21795
199 17.7491 33.3877 31.1321
200 20.4711 33.3879 31.132
201 1.23226 1.19137 2.24172
202 0.435356 35.9566 31.1159
203 3.16266 35.9552 31.1311
204 1.21687 5.12997 4.44507
205 0.343847 3.83974 2.2148
206 3.10599 3.98424 2.24527
207 2.14689 2.58468 31.0337
208 4.91527 2.55397 -0.00521525
209 1.12003 8.97983 6.66784
210 0.241838 7.69832 4.44433
211 2.96738 7.69842 4.44549
212 2.07501 6.44319 2.21805
213 4.80748 6.40127 2.21932
214 3.94011 5.13106 31.1106
215 6.66209 5.12216 -0.00562887
216 1.02349 12.8325 8.89069
217 0.147915 11.5485 6.66668
218 2.87097 11.5484 6.66687
219 1.99509 10.2652 4.44276
220 4.71858 10.2646 4.44298
221 3.84342 8.98189 2.21795
222 6.5645 8.97603 2.21797
223 5.68968 7.69321 31.1322
224 8.41269 7.69205 -0.00606195
225 0.926394 16.6864 11.1146
226 0.0511747 15.4018 8.8905
227 2.7739 15.4018 8.89057
228 1.8986 14.1174 6.66642
229 4.62142 14.1173 6.66648
230 3.74613 12.8332 4.44229
231 6.46894 12.8325 4.44222
232 5.59383 11.5479 2.21781
233 8.31594 11.5467 2.21787
234 7.44065 10.2622 31.1323
235 10.1633 10.2619 31.1322
236 0.829242 20.5404 13.3388
237 38.0698 19.2557 11.1146
238 2.67674 19.2557 11.1147
239 1.80155 17.9711 8.89051
240 4.52424 17.971 8.89056
241 3.64904 16.6865 6.66636
242 6.37174 16.6863 6.66636
243 5.49656 15.4018 4.44212
244 8.21918 15.4015 4.44209
245 7.344 14.1168 2.21783
246 10.0664 14.1164 2.21786
247 9.19118 12.8317 31.1321
248 11.9137 12.8315 31.1321
249 0.732027 24.3945 15.5631
250 37.9726 23.1097 13.3389
251 2.57958 23.1097 13.339
252 1.70443 21.825 11.1148
253 4.4271 21.8249 11.1148
254 3.55192 20.5403 8.89058
255 6.2746 20.5402 8.89061
256 5.39942 19.2556 6.66636
257 8.12207 19.2554 6.66636
258 7.24689 17.9708 4.4421
259 9.96949 17.9706 4.44209
260 9.09427 16.686 2.21784
261 11.8168 16.6858 2.21787
262 10.9416 15.4011 31.1321
263 13.6641 15.4011 31.1321
264 0.634759 28.2487 17.7872
265 37.8754 26.9639 15.5631
266 2.48233 26.9639 15.5633
267 1.60721 25.6791 13.3391
268 4.32992 25.679 13.3392
269 3.45478 24.3943 11.115
270 6.17749 24.3942 11.115
271 5.30232 23.1095 8.89073
272 8.02502 23.1094 8.89074
273 7.14982 21.8247 6.66645
274 9.87249 21.8246 6.66644
275 8.99727 20.54 4.44216
276 11.7199 20.5399 4.44213
277 10.8446 19.2553 2.21789
278 13.5672 19.2552 2.21788
279 12.6919 17.9706 31.1321
280 15.4144 17.9706 31.1321
281 0.537366 32.103 20.0105
282 37.778 30.8182 17.7869
283 2.38506 30.8182 17.7871
284 1.50994 29.5333 15.5633
285 4.23268 29.5333 15.5635
286 3.35755 28.2484 13.3394
287 6.0803 28.2484 13.3395
288 5.20519 26.9635 11.1153
289 7.92795 26.9635 11.1153
290 7.05282 25.6786 8.89098
291 9.77555 25.6786 8.89093
292 8.90037 24.3938 6.66661
293 11.623 24.3938 6.66655
294 10.7478 23.1091 4.44223
295 13.4703 23.1092 4.44218
296 12.5951 21.8246 2.21791
297 15.3176 21.8247 2.2179
298 14.4423 20.54 31.1321
299 17.1648 20.5401 31.1321
300 37.6805 34.6727 20.01
301 2.28767 34.6727 20.0103
302 1.41261 33.3879 17.7868
303 4.13538 33.3879 17.7871
304 3.26029 32.103 15.5634
305 5.98304 32.103 15.5635
306 5.10797 30.8179 13.3398
307 7.83075 30.818 13.3397
308 6.95576 29.5328 11.1157
309 9.67851 29.5329 11.1156
310 8.80354 28.2478 8.89134
311 11.5262 28.2479 8.89115
312 10.6512 26.9629 6.66683
313 13.3736 26.9632 6.66666
314 12.4984 25.6784 4.44231
315 15.2208 25.6787 4.44224
316 14.3455 24.394 2.21795
317 17.068 24.3942 2.21792
318 16.1927 23.1095 31.1321
319 18.9151 23.1096 31.1321
320 5.01065 34.6727 15.5634
321 7.73337 34.6727 15.5636
322 6.85841 33.3877 13.3399
323 9.58113 33.3877 13.3398
324 8.7064 32.1024 11.1161
325 11.429 32.1026 11.1157
326 10.5544 30.8171 8.89172
327 13.2768 30.8176 8.89124
328 12.402 29.5323 6.66698
329 15.1241 29.5329 6.6667
330 14.249 28.2479 4.44238
331 16.9712 28.2483 4.44224
332 16.096 26.9635 2.21797
333 18.8183 26.9637 2.2179
334 17.943 25.679 31.1321
335 20.6654 25.6792 31.132
336 10.4568 34.6724 11.116
337 13.1792 34.6725 11.1155
338 12.3049 33.3871 8.89172
339 15.0269 33.3875 8.89116
340 14.1524 32.1022 6.66699
341 16.8743 32.1027 6.66665
342 15.9994 30.8176 4.44237
343 18.7214 30.818 4.44221
344 17.8463 29.5331 2.21794
345 20.5685 29.5334 2.21787
346 19.6933 28.2486 31.132
347 22.4156 28.2488 31.132
348 15.9024 34.6723 6.66687
349 18.6242 34.6726 6.66656
350 17.7494 33.3876 4.44231
351 20.4714 33.3879 4.44217
352 19.5964 32.103 2.21791
353 22.3185 32.1032 2.21785
354 21.4434 30.8183 31.132
355 24.1656 30.8184 31.132
356 21.3462 34.6728 2.21788
357 24.0683 34.6729 2.21778
358 23.1933 33.3881 31.132
359 25.9155 33.3881 31.1319
360 1.31682 1.26923 6.66908
361 0.433657 35.9467 4.46521
362 3.16112 35.9468 4.45553
363 1.21797 5.1232 8.89175
364 0.343851 3.83839 6.66581
365 3.06567 3.83768 6.67089
366 2.19578 2.5539 4.43853
367 4.91936 2.55848 4.45106
368 4.14058 1.18309 2.27219
369 6.79468 1.25844 2.22135
370 5.89218 35.9519 -0.00602276
371 8.61429 35.954 31.1313
372 1.12074 8.9781 11.1153
373 0.245193 7.69362 8.89151
374 2.96842 7.69441 8.89334
375 2.09218 6.41138 6.67129
376 4.81927 6.41355 6.67688
377 3.94874 5.13842 4.4731
378 6.66649 5.12376 4.44488
379 5.80158 3.8284 2.2218
380 8.5176 3.8374 2.2193
381 7.63887 2.55128 31.1317
382 10.3606 2.55247 31.132
383 1.02361 12.8322 13.3388
384 0.14839 11.5476 11.1148
385 2.87119 11.5477 11.115
386 1.99588 10.2634 8.89134
387 4.71896 10.2634 8.89156
388 3.84371 8.9797 6.66832
389 6.56712 8.97927 6.66775
390 5.69176 7.6955 4.44341
391 8.41416 7.69287 4.44271
392 7.53643 6.40684 2.21866
393 10.2611 6.40791 2.21834
394 9.3858 5.12262 -0.00604734
395 12.1087 5.12291 31.1322
396 0.926404 16.6864 15.5628
397 0.0512433 15.4016 13.3387
398 2.77393 15.4017 13.3388
399 1.89876 14.117 11.1147
400 4.62149 14.117 11.1148
401 3.74632 12.8325 8.89082
402 6.46911 12.8324 8.89082
403 5.59398 11.5482 6.66688
404 8.31667 11.5476 6.6665
405 7.44128 10.2628 4.4421
406 10.1638 10.2622 4.44218
407 9.28781 8.97696 2.21804
408 12.0109 8.97729 2.21804
409 11.1357 7.69237 31.1323
410 13.8585 7.69252 31.1322
411 0.829195 20.5405 17.787
412 38.0698 19.2557 15.5629
413 2.67671 19.2557 15.5629
414 1.80156 17.971 13.3388
415 4.52423 17.971 13.3388
416 3.64908 16.6864 11.1147
417 6.37175 16.6863 11.1147
418 5.49662 15.4017 8.89061
419 8.21929 15.4016 8.89058
420 7.34414 14.117 6.66642
421 10.0667 14.1166 6.66631
422 9.19144 12.8319 4.44205
423 11.914 12.8316 4.44209
424 11.0385 11.5467 2.21793
425 13.7612 11.5468 2.21793
426 12.886 10.262 31.1322
427 15.6086 10.2621 31.1322
428 0.73198 24.3947 20.0113
429 37.9725 23.1099 17.7871
430 2.57949 23.1099 17.7872
431 1.70437 21.8251 15.563
432 4.42702 21.8251 15.5631
433 3.5519 20.5404 13.3389
434 6.27455 20.5403 13.3389
435 5.3994 19.2556 11.1147
436 8.12205 19.2556 11.1147
437 7.2469 17.9709 8.89056
438 9.96952 17.9708 8.89053
439 9.09437 16.6861 6.66632
440 11.8169 16.6859 6.66628
441 10.9417 15.4012 4.44206
442 13.6642 15.4011 4.44207
443 12.7889 14.1163 2.21789
444 15.5115 14.1163 2.21789
445 14.6363 12.8316 31.1321
446 17.3588 12.8317 31.1321
447 0.634726 28.2488 22.2352
448 37.8753 26.9641 20.0112
449 2.48227 26.9641 20.0113
450 1.60714 25.6793 17.7872
451 4.3298 25.6793 17.7873
452 3.45469 24.3945 15.5632
453 6.17735 24.3945 15.5632
454 5.30224 23.1097 13.339
455 8.0249 23.1097 13.3391
456 7.14977 21.8249 11.1148
457 9.8724 21.8249 11.1148
458 8.99725 20.5401 8.89061
459 11.7199 20.5401 8.89057
460 10.8447 19.2553 6.66634
461 13.5672 19.2553 6.66631
462 12.692 17.9706 4.44208
463 15.4145 17.9706 4.44207
464 14.5393 16.6858 2.21788
465 17.2618 16.6859 2.21787
466 16.3866 15.4011 31.1321
467 19.109 15.4012 31.1321
468 0.537237 32.1028 24.4584
469 37.7779 30.8182 22.2347
470 2.38499 30.8183 22.235
471 1.50987 29.5335 20.0111
472 4.23256 29.5336 20.0113
473 3.35745 28.2487 17.7873
474 6.08012 28.2488 17.7874
475 5.20502 26.9639 15.5633
476 7.92769 26.9639 15.5634
477 7.05261 25.679 13.3392
478 9.77526 25.6791 13.3392
479 8.90017 24.3942 11.115
480 11.6228 24.3942 11.1149
481 10.7477 23.1094 8.89071
482 13.4703 23.1094 8.89065
483 12.5951 21.8246 6.6664
484 15.3176 21.8247 6.66634
485 14.4424 20.5399 4.4421
486 17.1649 20.54 4.44208
487 16.2897 19.2553 2.21787
488 19.0121 19.2554 2.21786
489 18.1369 17.9707 31.1321
490 20.8594 17.9708 31.1321
491 37.6794 34.6716 24.4555
492 2.28751 34.6723 24.4569
493 1.41241 33.3876 22.2339
494 4.13532 33.3879 22.2347
495 3.26016 32.1031 20.0109
496 5.98286 32.1032 20.0113
497 5.10777 30.8183 17.7873
498 7.83043 30.8183 17.7875
499 6.95538 29.5334 15.5635
500 9.67803 29.5335 15.5635
501 8.80301 28.2485 13.3394
502 11.5256 28.2485 13.3393
503 10.6506 26.9636 11.1152
504 13.3732 26.9637 11.115
505 12.4982 25.6787 8.89084
506 15.2206 25.6789 8.89072
507 14.3455 24.394 6.66647
508 17.068 24.3942 6.66638
509 16.1928 23.1094 4.44214
510 18.9152 23.1096 4.44209
511 18.04 21.8248 2.21788
512 20.7625 21.8249 2.21786
513 19.8872 20.5402 31.1321
514 22.6097 20.5403 31.132
515 5.01046 34.6728 20.0108
516 7.73312 34.6729 20.0113
517 6.85808 33.388 17.7874
518 9.5807 33.388 17.7875
519 8.70572 32.1031 15.5636
520 11.4283 32.1031 15.5635
521 10.5534 30.8181 13.3396
522 13.276 30.8182 13.3394
523 12.4011 29.5331 11.1153
524 15.1235 29.5333 11.1151
525 14.2486 28.2482 8.89092
526 16.971 28.2485 8.89073
527 16.096 26.9635 6.66651
528 18.8183 26.9638 6.66639
529 17.9432 25.6789 4.44216
530 20.6655 25.6791 4.44208
531 19.7903 24.3943 2.21787
532 22.5127 24.3945 2.21784
533 21.6375 23.1097 31.132
534 24.36 23.1099 31.132
535 10.456 34.6728 15.5636
536 13.1785 34.6728 15.5635
537 12.3037 33.3878 13.3396
538 15.0261 33.3879 13.3393
539 14.1514 32.1028 11.1153
540 16.8737 32.103 11.115
541 15.999 30.818 8.89091
542 18.7212 30.8182 8.8907
543 17.8463 29.5332 6.6665
544 20.5685 29.5334 6.66635
545 19.6935 28.2486 4.44213
546 22.4157 28.2487 4.44206
547 21.5406 26.9639 2.21785
548 24.2629 26.9641 2.21782
549 23.3878 25.6793 31.132
550 26.1102 25.6794 31.132
551 15.9015 34.6727 11.1152
552 18.6238 34.6728 11.1149
553 17.749 33.3878 8.89083
554 20.4712 33.388 8.89062
555 19.5964 32.103 6.66645
556 22.3186 32.1032 6.66631
557 21.4436 30.8183 4.4421
558 24.1658 30.8184 4.44203
559 23.2907 29.5336 2.21783
560 26.0131 29.5337 2.21777
561 25.1379 28.2489 31.132
562 27.8604 28.249 31.1319
563 21.3463 34.6728 6.66637
564 24.0685 34.6729 6.66625
565 23.1935 33.388 4.44206
566 25.9157 33.3881 4.44199
567 25.0407 32.1032 2.21777
568 27.7629 32.1033 2.21773
569 26.888 30.8185 31.1319
570 29.6103 30.8185 31.1319
571 26.7904 34.6729 2.21771
572 29.5123 34.6729 2.21767
573 28.6377 33.3881 31.1318
574 31.3599 33.388 31.1316
575 1.31566 1.26826 11.1158
576 0.440536 35.9574 8.89243
577 3.164 35.9571 8.89275
578 1.21818 5.12314 13.339
579 0.343116 3.83821 11.1153
580 3.06599 3.83816 11.116
581 2.19117 2.553 8.89279
582 4.91422 2.55271 8.89306
583 4.04078 1.26701 6.66821
584 6.76463 1.26742 6.67176
585 5.90191 35.9449 4.4571
586 8.61824 35.9527 4.44641
587 1.12082 8.97783 15.5626
588 0.245686 7.69293 13.3387
589 2.96846 7.69301 13.3391
590 2.09326 6.40813 11.1156
591 4.81632 6.40829 11.1163
592 3.94124 5.12347 8.89331
593 6.66516 5.12374 8.89411
594 5.79206 3.83898 6.67325
595 8.51342 3.83814 6.66887
596 7.64158 2.55062 4.4469
597 10.3623 2.55232 4.44399
598 9.49599 1.26539 2.21911
599 12.2111 1.26729 2.21844
600 11.3345 35.9562 31.1318
601 14.0554 35.957 31.132
602 1.02355 12.8323 17.7866
603 0.148424 11.5474 15.5626
604 2.87117 11.5475 15.5628
605 1.996 10.2627 13.339
606 4.71884 10.2629 13.3393
607 3.84375 8.97839 11.116
608 6.56683 8.97844 11.1163
609 5.69245 7.69484 8.89452
610 8.41455 7.69329 8.89173
611 7.54002 6.40876 6.66828
612 10.2621 6.40799 6.66722
613 9.38777 5.12278 4.44348
614 12.1097 5.12296 4.44279
615 11.2369 3.83799 2.21847
616 13.9577 3.83808 2.21821
617 13.0824 2.55299 31.1321
618 15.8043 2.5532 31.1321
619 0.926347 16.6865 20.0109
620 0.0512215 15.4017 17.7868
621 2.7739 15.4017 17.7868
622 1.89877 14.117 15.5628
623 4.62147 14.117 15.5629
624 3.74634 12.8323 13.3389
625 6.46908 12.8323 13.339
626 5.59402 11.5477 11.1152
627 8.31676 11.5476 11.1151
628 7.44191 10.2632 8.89142
629 10.1643 10.2625 8.89083
630 9.28929 8.97786 6.6668
631 12.0116 8.97749 6.66658
632 11.1366 7.69262 4.44249
633 13.859 7.69261 4.44234
634 12.984 6.4079 2.21816
635 15.7064 6.40785 2.21804
636 14.8313 5.12297 31.1322
637 17.5536 5.12301 31.1321
638 0.829167 20.5406 22.2353
639 38.0697 19.2559 20.0111
640 2.67667 19.2559 20.0111
641 1.80155 17.9711 17.787
642 4.52421 17.9711 17.787
643 3.64908 16.6864 15.5629
644 6.37174 16.6864 15.5629
645 5.49662 15.4017 13.3389
646 8.21928 15.4016 13.3389
647 7.3442 14.117 11.1148
648 10.0668 14.1168 11.1148
649 9.19175 12.8321 8.89067
650 11.9142 12.8319 8.89056
651 11.0391 11.5471 6.66639
652 13.7616 11.5469 6.66636
653 12.8864 10.2621 4.44219
654 15.6089 10.2621 4.44216
655 14.7337 8.97736 2.21799
656 17.4562 8.97741 2.21794
657 16.581 7.69259 31.1321
658 19.3035 7.69265 31.1321
659 0.731999 24.3948 24.4595
660 37.9726 23.11 22.2353
661 2.57948 23.11 22.2354
662 1.70433 21.8253 20.0112
663 4.42696 21.8252 20.0113
664 3.55184 20.5405 17.7871
665 6.27448 20.5405 17.7871
666 5.39937 19.2557 15.563
667 8.122 19.2557 15.563
668 7.24689 17.971 13.3389
669 9.9695 17.9709 13.3389
670 9.09439 16.6862 11.1147
671 11.817 16.6861 11.1147
672 10.9418 15.4014 8.89051
673 13.6644 15.4012 8.89048
674 12.7892 14.1165 6.66629
675 15.5117 14.1164 6.66627
676 14.6365 12.8316 4.4421
677 17.359 12.8317 4.44208
678 16.4838 11.5469 2.21792
679 19.2062 11.547 2.21788
680 18.3311 10.2622 31.1321
681 21.0535 10.2623 31.132
682 0.634789 28.2489 26.6836
683 37.8753 26.9642 24.4594
684 2.48228 26.9642 24.4595
685 1.60713 25.6794 22.2354
686 4.32977 25.6794 22.2354
687 3.45463 24.3947 20.0113
688 6.17726 24.3946 20.0114
689 5.30213 23.1099 17.7872
690 8.02476 23.1099 17.7873
691 7.14967 21.8251 15.5631
692 9.87228 21.8251 15.5631
693 8.99719 20.5403 13.3389
694 11.7198 20.5402 13.3389
695 10.8447 19.2555 11.1147
696 13.5672 19.2554 11.1147
697 12.6921 17.9707 8.8905
698 15.4146 17.9707 8.89047
699 14.5394 16.6859 6.66627
700 17.2619 16.6859 6.66626
701 16.3867 15.4011 4.44207
702 19.1092 15.4012 4.44205
703 18.234 14.1164 2.21788
704 20.9564 14.1165 2.21784
705 20.0813 12.8318 31.1321
706 22.8037 12.8319 31.132
707 0.537472 32.1032 28.9074
708 37.7779 30.8183 26.6833
709 2.38505 30.8183 26.6834
710 1.50987 29.5336 24.4593
711 4.23256 29.5336 24.4594
712 3.3574 28.2489 22.2354
713 6.08005 28.2489 22.2355
714 5.20492 26.9641 20.0114
715 7.92756 26.9641 20.0114
716 7.05244 25.6793 17.7873
717 9.77506 25.6793 17.7873
718 8.89999 24.3945 15.5632
719 11.6226 24.3945 15.5632
720 10.7475 23.1097 13.339
721 13.4701 23.1097 13.339
722 12.595 21.8248 11.1148
723 15.3175 21.8249 11.1147
724 14.4424 20.5401 8.89053
725 17.1649 20.5401 8.89049
726 16.2897 19.2553 6.66628
727 19.0122 19.2554 6.66626
728 18.137 17.9706 4.44206
729 20.8595 17.9707 4.44204
730 19.9842 16.686 2.21786
731 22.7067 16.6861 2.21783
732 21.8315 15.4013 31.132
733 24.5539 15.4015 31.132
734 37.6777 34.6701 28.9016
735 2.28777 34.6722 28.905
736 1.41233 33.3875 26.6817
737 4.13546 33.3878 26.683
738 3.26018 32.1031 24.4589
739 5.98288 32.1031 24.4594
740 5.10769 30.8184 22.2353
741 7.83033 30.8185 22.2355
742 6.95521 29.5336 20.0114
743 9.67783 29.5337 20.0115
744 8.80276 28.2488 17.7874
745 11.5253 28.2488 17.7874
746 10.6503 26.964 15.5633
747 13.3729 26.964 15.5632
748 12.4978 25.6791 13.3391
749 15.2204 25.6792 13.339
750 14.3453 24.3943 11.1149
751 17.0678 24.3944 11.1148
752 16.1928 23.1095 8.89057
753 18.9152 23.1096 8.8905
754 18.0401 21.8248 6.6663
755 20.7625 21.8249 6.66626
756 19.8873 20.5401 4.44206
757 22.6098 20.5403 4.44203
758 21.7346 19.2555 2.21785
759 24.457 19.2556 2.21782
760 23.5818 17.9709 31.132
761 26.3042 17.971 31.132
762 5.01056 34.6728 24.4586
763 7.73312 34.6728 24.4594
764 6.85798 33.388 22.2353
765 9.58056 33.3881 22.2355
766 8.70547 32.1032 20.0115
767 11.4281 32.1033 20.0115
768 10.553 30.8184 17.7875
769 13.2756 30.8185 17.7874
770 12.4006 29.5335 15.5634
771 15.1231 29.5336 15.5632
772 14.2482 28.2486 13.3392
773 16.9706 28.2487 13.339
774 16.0957 26.9638 11.1149
775 18.8181 26.9639 11.1148
776 17.9431 25.679 8.8906
777 20.6655 25.6792 8.8905
778 19.7904 24.3943 6.6663
779 22.5128 24.3945 6.66624
780 21.6376 23.1097 4.44205
781 24.36 23.1098 4.44202
782 23.4849 21.8251 2.21783
783 26.2073 21.8252 2.2178
784 25.3321 20.5404 31.132
785 28.0546 20.5406 31.132
786 10.4557 34.6729 20.0115
787 13.1782 34.6729 20.0115
788 12.3033 33.3881 17.7875
789 15.0258 33.3881 17.7874
790 14.1508 32.1032 15.5634
791 16.8733 32.1033 15.5632
792 15.9984 30.8183 13.3392
793 18.7208 30.8184 13.339
794 17.8459 29.5334 11.1149
795 20.5683 29.5336 11.1147
796 19.6933 28.2487 8.89058
797 22.4156 28.2488 8.89047
798 21.5406 26.9639 6.66629
799 24.263 26.9641 6.66622
800 23.3879 25.6793 4.44203
801 26.1103 25.6794 4.44201
802 25.2351 24.3946 2.21782
803 27.9576 24.3947 2.2178
804 27.0824 23.11 31.132
805 29.8049 23.1101 31.132
806 15.901 34.6729 15.5633
807 18.6234 34.6729 15.5631
808 17.7485 33.388 13.3391
809 20.4709 33.3881 13.3389
810 19.596 32.1032 11.1148
811 22.3184 32.1033 11.1147
812 21.4434 30.8184 8.89054
813 24.1658 30.8185 8.89043
814 23.2908 29.5336 6.66626
815 26.0131 29.5337 6.66621
816 25.138 28.2489 4.44202
817 27.8604 28.2489 4.44199
818 26.9854 26.9642 2.21779
819 29.7078 26.9642 2.21778
820 28.8327 25.6795 31.132
821 31.5552 25.6796 31.132
822 21.3461 34.6729 11.1147
823 24.0684 34.673 11.1146
824 23.1935 33.3881 8.89047
825 25.9158 33.3881 8.8904
826 25.0408 32.1033 6.66623
827 27.7631 32.1033 6.66621
828 26.8881 30.8185 4.44199
829 29.6104 30.8184 4.44201
830 28.7354 29.5337 2.21775
831 31.4579 29.5337 2.21777
832 30.5828 28.249 31.1319
833 33.3054 28.249 31.132
834 26.7907 34.673 6.66621
835 29.513 34.673 6.66623
836 28.6379 33.3881 4.44199
837 31.3601 33.388 4.4421
838 30.4853 32.1032 2.21772
839 33.2078 32.103 2.21773
840 32.3328 30.8184 31.1318
841 35.0555 30.8186 31.132
842 32.2341 34.6726 2.21758
843 34.9561 34.6719 2.21775
844 34.0823 33.3878 31.1312
845 36.8053 33.3883 31.1315
846 1.31542 1.26844 15.5628
847 0.440341 35.9576 13.3392
848 3.16318 35.9575 13.3396
849 1.21801 5.12329 17.7861
850 0.342962 3.83827 15.5625
851 3.06575 3.83827 15.5629
852 2.19069 2.55328 13.3393
853 4.91354 2.55326 13.3397
854 4.03866 1.26811 11.1163
855 6.76159 1.26811 11.1164
856 5.88719 35.9566 8.8932
857 8.6103 35.9567 8.8932
858 1.12065 8.97824 20.0099
859 0.245571 7.69309 17.7862
860 2.96838 7.6931 17.7863
861 2.09327 6.4081 15.5627
862 4.81606 6.40809 15.563
863 3.941 5.12316 13.3394
864 6.66383 5.12317 13.3397
865 5.78895 3.83813 11.1163
866 8.51195 3.83825 11.1164
867 7.63779 2.55309 8.89356
868 10.36 2.55305 8.89219
869 9.48657 1.26718 6.66916
870 12.2082 1.26773 6.66769
871 11.3362 35.9557 4.44385
872 14.0563 35.9567 4.44288
873 1.0234 12.8326 22.2346
874 0.148269 11.5477 20.0104
875 2.87106 11.5477 20.0104
876 1.99594 10.2628 17.7864
877 4.71872 10.2628 17.7866
878 3.8436 8.97787 15.5628
879 6.56638 8.97786 15.5631
880 5.69134 7.69307 13.3395
881 8.41414 7.69304 13.3396
882 7.53944 6.40837 11.1165
883 10.2618 6.40806 11.1156
884 9.38729 5.12322 8.89206
885 12.1095 5.123 8.89131
886 11.2352 3.83792 6.66759
887 13.9572 3.838 6.66698
888 13.0833 2.55288 4.44296
889 15.8048 2.55314 4.44251
890 14.9308 1.26795 2.21817
891 17.652 1.26829 2.218
892 16.7769 35.9574 31.1321
893 19.4988 35.9576 31.132
894 0.926245 16.6867 24.4591
895 0.0510959 15.4019 22.2349
896 2.7738 15.4019 22.2349
897 1.89868 14.1171 20.0107
898 4.62139 14.1171 20.0108
899 3.74629 12.8323 17.7867
900 6.46901 12.8323 17.7869
901 5.59392 11.5475 15.563
902 8.31661 11.5474 15.5631
903 7.44164 10.2628 13.3394
904 10.1642 10.2625 13.3391
905 9.28929 8.97788 11.1154
906 12.0117 8.9776 11.115
907 11.1368 7.69283 8.89108
908 13.8592 7.69265 8.89081
909 12.9843 6.40781 6.66682
910 15.7066 6.4078 6.66658
911 14.8319 5.12298 4.44247
912 17.554 5.123 4.44227
913 16.6793 3.83815 2.21804
914 19.4013 3.83819 2.21793
915 18.5263 2.55331 31.1321
916 21.2484 2.55339 31.132
917 0.829144 20.5407 26.6836
918 38.0697 19.256 24.4593
919 2.67663 19.256 24.4593
920 1.80147 17.9713 22.2351
921 4.52414 17.9712 22.2352
922 3.64902 16.6865 20.011
923 6.37169 16.6864 20.0111
924 5.49659 15.4017 17.7869
925 8.21923 15.4016 17.7871
926 7.34416 14.1169 15.563
927 10.0668 14.1168 15.563
928 9.19173 12.8321 13.339
929 11.9143 12.8319 13.3389
930 11.0392 11.5472 11.1149
931 13.7617 11.547 11.1148
932 12.8867 10.2623 8.89067
933 15.6091 10.2622 8.89058
934 14.734 8.9774 6.66647
935 17.4564 8.97739 6.66637
936 16.5814 7.69262 4.44223
937 19.3037 7.69264 4.44213
938 18.4287 6.40785 2.21794
939 21.151 6.4079 2.21787
940 20.2759 5.12307 31.132
941 22.9982 5.12317 31.132
942 0.73204 24.3947 28.9078
943 37.9726 23.1101 26.6836
944 2.57949 23.11 26.6836
945 1.70432 21.8253 24.4595
946 4.42696 21.8253 24.4595
947 3.55181 20.5406 22.2353
948 6.27444 20.5405 22.2354
949 5.39932 19.2558 20.0112
950 8.12194 19.2558 20.0112
951 7.24685 17.9711 17.7871
952 9.96944 17.971 17.7871
953 9.09436 16.6863 15.563
954 11.8169 16.6862 15.563
955 10.9419 15.4015 13.3389
956 13.6644 15.4013 13.3388
957 12.7893 14.1166 11.1147
958 15.5118 14.1165 11.1147
959 14.6367 12.8317 8.89051
960 17.3591 12.8317 8.89047
961 16.484 11.5469 6.66631
962 19.2065 11.547 6.66627
963 18.3313 10.2622 4.44211
964 21.0537 10.2622 4.44206
965 20.1786 8.97746 2.21788
966 22.9009 8.97757 2.21781
967 22.0258 7.69276 31.132
968 24.7481 7.69292 31.1319
969 37.8754 26.9642 28.9078
970 2.48236 26.964 28.9078
971 1.60717 25.6795 26.6836
972 4.32982 25.6793 26.6837
973 3.45463 24.3947 24.4595
974 6.17728 24.3946 24.4596
975 5.30212 23.11 22.2354
976 8.02473 23.1099 22.2354
977 7.14959 21.8252 20.0113
978 9.8722 21.8252 20.0113
979 8.99709 20.5404 17.7872
980 11.7197 20.5404 17.7872
981 10.8446 19.2556 15.563
982 13.5671 19.2556 15.563
983 12.6921 17.9708 13.3389
984 15.4146 17.9708 13.3388
985 14.5395 16.686 11.1147
986 17.2619 16.686 11.1146
987 16.3868 15.4012 8.89045
988 19.1093 15.4012 8.89043
989 18.2341 14.1164 6.66625
990 20.9566 14.1165 6.66623
991 20.0814 12.8317 4.44205
992 22.8038 12.8318 4.44201
993 21.9287 11.5471 2.21783
994 24.651 11.5472 2.21777
995 23.7759 10.2624 31.132
996 26.4982 10.2626 31.1319
997 1.51 29.5335 28.9077
998 4.23279 29.5332 28.9077
999 3.35746 28.2488 26.6836
1000 6.08019 28.2487 26.6836
1001 5.20493 26.9641 24.4596
1002 7.92758 26.9641 24.4596
1003 7.05241 25.6794 22.2355
1004 9.77502 25.6794 22.2355
1005 8.89988 24.3946 20.0114
1006 11.6225 24.3946 20.0114
1007 10.7474 23.1099 17.7873
1008 13.4699 23.1098 17.7872
1009 12.5948 21.825 15.5631
1010 15.3174 21.825 15.5631
1011 14.4423 20.5402 13.3389
1012 17.1648 20.5402 13.3389
1013 16.2897 19.2554 11.1147
1014 19.0122 19.2555 11.1146
1015 18.1371 17.9707 8.89045
1016 20.8595 17.9707 8.89042
1017 19.9844 16.686 6.66624
1018 22.7068 16.686 6.66621
1019 21.8316 15.4013 4.44203
1020 24.5541 15.4014 4.442
1021 23.6789 14.1167 2.2178
1022 26.4012 14.1168 2.21776
1023 25.5261 12.8321 31.1319
1024 28.2484 12.8323 31.1319
1025 3.26036 32.1028 28.9075
1026 5.98354 32.1023 28.9074
1027 5.10781 30.8182 26.6835
1028 7.83062 30.8181 26.6836
1029 6.95524 29.5336 24.4595
1030 9.67789 29.5336 24.4596
1031 8.80268 28.2489 22.2355
1032 11.5253 28.2489 22.2355
1033 10.6502 26.9641 20.0114
1034 13.3727 26.9641 20.0114
1035 12.4976 25.6793 17.7873
1036 15.2201 25.6794 17.7872
1037 14.3451 24.3945 15.5631
1038 17.0676 24.3945 15.5631
1039 16.1926 23.1097 13.3389
1040 18.915 23.1098 13.3389
1041 18.04 21.8249 11.1147
1042 20.7624 21.825 11.1146
1043 19.8873 20.5402 8.89045
1044 22.6098 20.5403 8.89041
1045 21.7346 19.2555 6.66623
1046 24.4571 19.2556 6.6662
1047 23.5819 17.9708 4.44202
1048 26.3043 17.971 4.44199
1049 25.4291 16.6862 2.2178
1050 28.1515 16.6864 2.21776
1051 27.2763 15.4016 31.1319
1052 29.9988 15.4019 31.1319
1053 5.01075 34.6727 28.9076
1054 7.73441 34.6716 28.9073
1055 6.85813 33.3878 26.6835
1056 9.58097 33.3877 26.6835
1057 8.70552 32.1032 24.4595
1058 11.4281 32.1032 24.4596
1059 10.5529 30.8185 22.2355
1060 13.2755 30.8185 22.2355
1061 12.4004 29.5337 20.0115
1062 15.1229 29.5337 20.0114
1063 14.2479 28.2489 17.7873
1064 16.9704 28.2489 17.7872
1065 16.0954 26.9641 15.5631
1066 18.8178 26.9641 15.5631
1067 17.9428 25.6792 13.3389
1068 20.6653 25.6793 13.3388
1069 19.7903 24.3945 11.1147
1070 22.5127 24.3945 11.1146
1071 21.6376 23.1097 8.89044
1072 24.36 23.1098 8.8904
1073 23.4849 21.825 6.66622
1074 26.2073 21.8251 6.66619
1075 25.3322 20.5404 4.442