ITEM: TIMESTEP
1699
ITEM: NUMBER OF ATOMS
1373
ITEM: BOX BOUNDS pp pp pp
-1.1933430184810807e-03 3.1127393212106607e+01
-1.1624489838191227e-03 2.2010709448983850e+01
-1.1909257962291260e-03 3.1127390794884349e+01
ITEM: ATOMS id x y z
1 31.1242 20.4321 2.22489
2 2.22059 20.4205 31.1264
3 31.1252 20.436 6.67289
4 2.22075 20.4323 4.45174
5 4.44501 20.436 2.22225
6 6.6745 20.4323 31.1266
7 31.1263 20.4372 11.1187
8 2.22146 20.4358 8.89691
9 4.44561 20.4368 6.67146
10 6.66924 20.4372 4.44649
11 8.89422 20.4368 2.22286
12 11.1197 20.4358 31.1273
13 31.1268 20.4378 15.564
14 2.22178 20.4377 13.3411
15 4.44555 20.4374 11.118
16 6.66914 20.4377 8.89372
17 8.89259 20.4377 6.66983
18 11.1165 20.4377 4.44639
19 13.3407 20.4374 2.22279
20 15.5638 20.4377 -0.00099083
21 31.1269 20.4379 20.0099
22 2.22194 20.4379 17.7868
23 4.44554 20.4379 15.5636
24 6.66911 20.4378 13.3403
25 8.89253 20.4379 11.1167
26 11.1159 20.4379 8.89314
27 13.3394 20.4379 6.66977
28 15.5631 20.4378 4.44635
29 17.7864 20.4379 2.22277
30 20.0096 20.4379 -0.00082909
31 31.1263 20.4367 24.4549
32 2.22201 20.4375 22.2323
33 4.44573 20.4378 20.0095
34 6.66924 20.4379 17.7864
35 8.89265 20.4379 15.5632
36 11.116 20.4379 13.3398
37 13.3393 20.438 11.1165
38 15.5626 20.4379 8.8932
39 17.7859 20.4379 6.66988
40 20.0092 20.4379 4.44647
41 22.2322 20.4378 2.22297
42 24.4551 20.4375 -0.000750034
43 31.1241 20.4319 28.9013
44 2.22195 20.4314 26.6724
45 4.44647 20.436 24.4537
46 6.6698 20.4374 22.232
47 8.89302 20.4378 20.0094
48 11.1162 20.4379 17.7863
49 13.3395 20.4379 15.5631
50 15.5627 20.438 13.3399
51 17.7859 20.4379 11.1167
52 20.0091 20.4379 8.89348
53 22.2321 20.4378 6.67026
54 24.4548 20.4374 4.44705
55 26.6765 20.436 2.22372
56 28.8952 20.4314 -0.000804503
57 4.44765 20.4321 28.9014
58 6.67098 20.4358 26.6781
59 8.89386 20.4372 24.4555
60 11.1168 20.4377 22.2327
61 13.3398 20.4379 20.0097
62 15.563 20.4379 17.7865
63 17.7861 20.4379 15.5634
64 20.0093 20.4379 13.3402
65 22.2324 20.4379 11.1171
66 24.4555 20.4377 8.89405
67 26.6783 20.4372 6.67111
68 28.9009 20.4358 4.44823
69 8.89565 20.436 28.9024
70 11.1179 20.4372 26.6793
71 13.3405 20.4377 24.4563
72 15.5634 20.4379 22.2332
73 17.7864 20.4379 20.01
74 20.0096 20.438 17.7868
75 22.2328 20.4379 15.5637
76 24.456 20.4379 13.3406
77 26.6791 20.4377 11.1177
78 28.9021 20.4372 8.8951
79 13.3415 20.4372 28.9035
80 15.5639 20.4377 26.6801
81 17.7868 20.4379 24.4568
82 20.0098 20.438 22.2335
83 22.233 20.438 20.0102
84 24.4563 20.4379 17.7871
85 26.6796 20.4379 15.564
86 28.9029 20.4377 13.3411
87 17.7868 20.4378 28.904
88 20.0098 20.4379 26.6805
89 22.233 20.438 24.457
90 24.4563 20.4379 22.2336
91 26.6798 20.4379 20.0102
92 28.9032 20.4379 17.7871
93 22.2327 20.4379 28.9041
94 24.4559 20.4378 26.6803
95 26.6794 20.4377 24.4567
96 28.9031 20.4378 22.2331
97 26.6777 20.4367 28.9035
98 28.902 20.4365 26.6793
99 31.1257 17.2908 2.22373
100 31.1232 18.8586 31.1274
101 2.2217 17.2888 -0.00107126
102 31.126 17.2923 6.67139
103 31.1253 18.8633 4.44843
104 2.22147 17.2913 4.44794
105 2.22119 18.8611 2.22491
106 4.44578 17.292 2.22301
107 4.44768 18.8611 31.127
108 6.6707 17.2913 31.1273
109 31.1265 17.2929 11.1179
110 31.1261 18.8646 8.89518
111 2.22164 17.2924 8.8949
112 2.22142 18.8631 6.6727
113 4.44553 17.2928 6.67054
114 4.4456 18.8645 4.44693
115 6.66928 17.2929 4.44652
116 6.66969 18.8645 2.22284
117 8.89331 17.2928 2.22277
118 8.89546 18.8631 31.1272
119 11.1177 17.2924 -0.00112358
120 31.1268 17.2933 15.5638
121 31.1266 18.8653 13.3411
122 2.22181 17.2931 13.3408
123 2.22169 18.8649 11.1183
124 4.4455 17.2931 11.1173
125 4.44553 18.865 8.89438
126 6.66907 17.2932 8.89351
127 6.66912 18.8653 6.6701
128 8.89259 17.2933 6.66983
129 8.89286 18.8653 4.44636
130 11.1163 17.2932 4.44631
131 11.1171 18.865 2.22277
132 13.3401 17.2931 2.22273
133 13.3411 18.8649 -0.00107188
134 15.5636 17.2931 -0.000963253
135 31.1268 17.2932 20.0096
136 31.1268 18.8656 17.7868
137 2.22193 17.2933 17.7865
138 2.22187 18.8656 15.5638
139 4.44556 17.2933 15.5635
140 4.44552 18.8654 13.3406
141 6.6691 17.2933 13.3401
142 6.66909 18.8655 11.117
143 8.89252 17.2934 11.1166
144 8.89252 18.8656 8.89326
145 11.1159 17.2934 8.89315
146 11.116 18.8656 6.66976
147 13.3394 17.2934 6.66975
148 13.3397 18.8655 4.44633
149 15.5629 17.2933 4.44632
150 15.5634 18.8654 2.22275
151 17.7862 17.2933 2.22278
152 17.7866 18.8656 -0.000899341
153 20.0093 17.2933 -0.000839992
154 31.1265 17.2925 24.4556
155 31.1267 18.8651 22.2324
156 2.222 17.2927 22.2319
157 2.22198 18.8655 20.0095
158 4.44575 17.2931 20.0092
159 4.44562 18.8656 17.7865
160 6.66927 17.2933 17.7863
161 6.66916 18.8656 15.5633
162 8.89266 17.2934 15.5631
163 8.89257 18.8656 13.3399
164 11.116 17.2934 13.3398
165 11.1159 18.8657 11.1165
166 13.3393 17.2934 11.1165
167 13.3393 18.8657 8.89314
168 15.5626 17.2934 8.8932
169 15.5627 18.8656 6.6698
170 17.7859 17.2934 6.66987
171 17.7861 18.8656 4.44638
172 20.009 17.2933 4.44649
173 20.0092 18.8656 2.22285
174 22.232 17.2931 2.22299
175 22.2322 18.8655 -0.000789455
176 24.4547 17.2927 -0.000763088
177 31.1256 17.2905 28.9029
178 31.126 18.8633 26.6784
179 2.22192 17.2906 26.678
180 2.22201 18.8634 24.4537
181 4.44609 17.2923 24.4553
182 4.44598 18.8649 22.2318
183 6.66964 17.293 22.2324
184 6.66944 18.8654 20.0093
185 8.89297 17.2932 20.0094
186 8.8928 18.8656 17.7863
187 11.1162 17.2933 17.7863
188 11.1161 18.8657 15.5631
189 13.3395 17.2934 15.5631
190 13.3393 18.8657 13.3398
191 15.5627 17.2934 13.3399
192 15.5626 18.8657 11.1166
193 17.7859 17.2934 11.1167
194 17.7858 18.8656 8.89331
195 20.0091 17.2933 8.89345
196 20.009 18.8656 6.67002
197 22.2322 17.2932 6.6702
198 22.232 18.8654 4.44668
199 24.4552 17.293 4.44688
200 24.4546 18.8649 2.22322
201 26.6781 17.2923 2.22334
202 26.6764 18.8634 -0.000746153
203 28.9007 17.2906 -0.000837249
204 2.22157 18.8586 28.9005
205 4.4465 17.2908 28.9029
206 4.44653 18.863 26.6782
207 6.6702 17.2922 26.6792
208 6.67007 18.8646 24.4554
209 8.89349 17.2929 24.456
210 8.89327 18.8653 22.2325
211 11.1166 17.2932 22.2329
212 11.1164 18.8655 20.0095
213 13.3398 17.2933 20.0097
214 13.3396 18.8656 17.7864
215 15.5629 17.2934 17.7866
216 15.5628 18.8657 15.5632
217 17.7861 17.2934 15.5634
218 17.786 18.8657 13.34
219 20.0093 17.2934 13.3402
220 20.0092 18.8656 11.1168
221 22.2325 17.2933 11.117
222 22.2323 18.8655 8.89368
223 24.4556 17.2932 8.89388
224 24.4553 18.8653 6.67052
225 26.6788 17.2929 6.67073
226 26.6782 18.8646 4.44731
227 28.902 17.2922 4.44745
228 28.9009 18.863 2.22377
229 6.67119 18.8633 28.9026
230 8.89415 17.2923 28.9033
231 8.89415 18.8646 26.6792
232 11.1172 17.2929 26.6798
233 11.1171 18.8652 24.4561
234 13.3402 17.2932 24.4565
235 13.34 18.8655 22.233
236 15.5632 17.2933 22.2333
237 15.5631 18.8656 20.0099
238 17.7864 17.2934 20.01
239 17.7863 18.8657 17.7867
240 20.0095 17.2934 17.7868
241 20.0094 18.8657 15.5635
242 22.2328 17.2934 15.5636
243 22.2326 18.8656 13.3404
244 24.456 17.2933 13.3405
245 24.4558 18.8655 11.1173
246 26.6793 17.2932 11.1174
247 26.6789 18.8652 8.8943
248 28.9026 17.2929 8.89445
249 28.902 18.8646 6.67139
250 11.1179 18.8646 28.9033
251 13.3406 17.2929 28.9037
252 13.3406 18.8652 26.6799
253 15.5636 17.2932 26.6802
254 15.5635 18.8655 24.4567
255 17.7866 17.2933 24.4568
256 17.7865 18.8656 22.2334
257 20.0097 17.2934 22.2335
258 20.0097 18.8657 20.0101
259 22.2329 17.2934 20.0102
260 22.2329 18.8657 17.7869
261 24.4562 17.2934 17.7869
262 24.4561 18.8656 15.5638
263 26.6796 17.2933 15.5638
264 26.6794 18.8655 13.3408
265 28.903 17.2932 13.3408
266 28.9027 18.8652 11.1179
267 15.5639 18.8653 28.9038
268 17.7866 17.2933 28.904
269 17.7867 18.8656 26.6804
270 20.0096 17.2933 26.6804
271 20.0098 18.8657 24.4569
272 22.2329 17.2934 24.4569
273 22.233 18.8657 22.2335
274 24.4562 17.2934 22.2335
275 24.4563 18.8657 20.0102
276 26.6797 17.2934 20.0101
277 26.6797 18.8656 17.787
278 28.9032 17.2933 17.7869
279 28.9031 18.8656 15.564
280 20.0096 18.8656 28.9041
281 22.2323 17.2932 28.904
282 22.2327 18.8656 26.6804
283 24.4557 17.2932 26.6803
284 24.4561 18.8656 24.4568
285 26.6794 17.2931 24.4566
286 26.6796 18.8656 22.2333
287 28.9031 17.2932 22.233
288 28.9032 18.8656 20.01
289 24.4551 18.8651 28.9039
290 26.6783 17.2925 28.9037
291 26.6789 18.865 26.68
292 28.9024 17.2924 26.6796
293 28.9028 18.865 24.4561
294 28.9012 18.8633 28.9032
295 31.1261 14.1489 2.22343
296 31.1257 15.7193 -0.000928424
297 2.2218 14.1489 -0.000966058
298 31.1263 14.1489 6.671
299 31.1261 15.7203 4.44748
300 2.22165 14.1489 4.44733
301 2.22168 15.7198 2.22348
302 4.44582 14.1489 2.22305
303 4.44625 15.7198 -0.00108604
304 6.67009 14.1489 -0.00111667
305 31.1266 14.1489 11.1176
306 31.1264 15.7208 8.89447
307 2.22169 14.1489 8.89437
308 2.22162 15.7204 6.67111
309 4.44551 14.1489 6.67039
310 4.4456 15.7207 4.44683
311 6.66928 14.1489 4.44652
312 6.6696 15.7207 2.22284
313 8.89316 14.1489 2.22275
314 8.89388 15.7204 -0.00114156
315 11.1171 14.1489 -0.00107095
316 31.1268 14.1489 15.5637
317 31.1267 15.721 13.3407
318 2.22182 14.1489 13.3406
319 2.22175 15.7208 11.1177
320 4.44549 14.1489 11.1171
321 4.44549 15.7209 8.89388
322 6.66906 14.1489 8.89345
323 6.66912 15.721 6.67005
324 8.8926 14.1489 6.66984
325 8.89281 15.721 4.44636
326 11.1162 14.1489 4.4463
327 11.1166 15.7209 2.22273
328 13.3399 14.1489 2.22272
329 13.3404 15.7208 -0.0010186
330 15.5634 14.1489 -0.000952944
331 31.1268 14.1489 20.0096
332 31.1268 15.7211 17.7866
333 2.22193 14.1489 17.7864
334 2.22188 15.7211 15.5636
335 4.44556 14.1489 15.5633
336 4.44552 15.721 13.3403
337 6.66909 14.1489 13.34
338 6.66906 15.7211 11.1168
339 8.89252 14.1489 11.1166
340 8.89252 15.7211 8.89324
341 11.1159 14.1489 8.89314
342 11.116 15.7211 6.66975
343 13.3393 14.1489 6.66974
344 13.3396 15.7211 4.44629
345 15.5628 14.1489 4.44631
346 15.5631 15.721 2.22274
347 17.7861 14.1489 2.22278
348 17.7864 15.7211 -0.000895673
349 20.0092 14.1489 -0.000840863
350 31.1266 14.1489 24.4558
351 31.1267 15.7209 22.2326
352 2.22199 14.1489 22.2322
353 2.22197 15.721 20.0093
354 4.44574 14.1489 20.0093
355 4.44564 15.721 17.7863
356 6.66926 14.1489 17.7863
357 6.66916 15.7211 15.5632
358 8.89265 14.1489 15.5631
359 8.89257 15.7211 13.3398
360 11.116 14.1489 13.3398
361 11.1159 15.7211 11.1165
362 13.3393 14.1489 11.1165
363 13.3393 15.7211 8.89314
364 15.5626 14.1488 8.89319
365 15.5626 15.7211 6.66978
366 17.7858 14.1489 6.66986
367 17.7859 15.7211 4.44637
368 20.009 14.1489 4.44648
369 20.0091 15.721 2.22286
370 22.2321 14.1489 2.22296
371 22.232 15.721 -0.000796386
372 24.455 14.1489 -0.000771669
373 31.1261 14.1489 28.9033
374 31.1263 15.7202 26.6792
375 2.22194 14.1489 26.679
376 2.22198 15.7203 24.4552
377 4.44599 14.1489 24.4557
378 4.44587 15.7208 22.2323
379 6.66957 14.1489 22.2326
380 6.6694 15.721 20.0094
381 8.89293 14.1489 20.0095
382 8.89278 15.7211 17.7863
383 11.1162 14.1489 17.7863
384 11.1161 15.7211 15.5631
385 13.3394 14.1488 15.5631
386 13.3393 15.7211 13.3398
387 15.5627 14.1488 13.3399
388 15.5626 15.7211 11.1166
389 17.7859 14.1488 11.1167
390 17.7858 15.7211 8.89329
391 20.0091 14.1489 8.89343
392 20.009 15.7211 6.67
393 22.2323 14.1489 6.67016
394 22.2321 15.721 4.44663
395 24.4554 14.1489 4.44681
396 24.4551 15.7208 2.22311
397 26.6785 14.1489 2.22323
398 26.678 15.7203 -0.000775483
399 28.9018 14.1489 -0.000823523
400 2.22184 15.7193 28.903
401 4.4462 14.1489 28.9033
402 4.44615 15.7202 26.6792
403 6.66998 14.1489 26.6795
404 6.6698 15.7207 24.4559
405 8.89335 14.1489 24.4562
406 8.89315 15.721 22.2327
407 11.1166 14.1489 22.233
408 11.1164 15.7211 20.0096
409 13.3397 14.1489 20.0098
410 13.3396 15.7211 17.7864
411 15.5629 14.1488 17.7866
412 15.5628 15.7211 15.5632
413 17.7861 14.1488 15.5633
414 17.786 15.7211 13.34
415 20.0093 14.1488 13.3401
416 20.0092 15.7211 11.1168
417 22.2325 14.1489 11.117
418 22.2324 15.7211 8.89362
419 24.4557 14.1489 8.89381
420 24.4555 15.721 6.67039
421 26.6789 14.1489 6.6706
422 26.6787 15.7207 4.44704
423 28.9023 14.1489 4.44722
424 28.902 15.7202 2.22339
425 6.67024 15.7203 28.9033
426 8.89376 14.1489 28.9035
427 8.89365 15.7207 26.6797
428 11.117 14.1489 26.6799
429 11.1168 15.721 24.4563
430 13.3401 14.1489 24.4566
431 13.3399 15.7211 22.2331
432 15.5632 14.1489 22.2333
433 15.5631 15.7211 20.0099
434 17.7863 14.1488 20.01
435 17.7862 15.7211 17.7867
436 20.0095 14.1488 17.7868
437 20.0094 15.7211 15.5635
438 22.2328 14.1488 15.5636
439 22.2326 15.7211 13.3403
440 24.456 14.1489 13.3404
441 24.4559 15.7211 11.1172
442 26.6793 14.1489 11.1173
443 26.6791 15.721 8.89406
444 28.9027 14.1489 8.89424
445 28.9024 15.7207 6.67089
446 11.1172 15.7208 28.9036
447 13.3404 14.1489 28.9038
448 13.3403 15.721 26.6801
449 15.5634 14.1489 26.6803
450 15.5633 15.7211 24.4567
451 17.7865 14.1489 24.4568
452 17.7864 15.7211 22.2334
453 20.0097 14.1489 22.2335
454 20.0096 15.7211 20.0101
455 22.2329 14.1489 20.0102
456 22.2329 15.7211 17.7869
457 24.4562 14.1489 17.7869
458 24.4561 15.7211 15.5637
459 26.6796 14.1489 15.5637
460 26.6795 15.7211 13.3406
461 28.903 14.1489 13.3407
462 28.9029 15.721 11.1175
463 15.5635 15.721 28.9039
464 17.7865 14.1489 28.904
465 17.7865 15.7211 26.6804
466 20.0096 14.1489 26.6804
467 20.0097 15.7211 24.4569
468 22.2328 14.1489 24.4569
469 22.2329 15.7211 22.2335
470 24.4562 14.1489 22.2334
471 24.4563 15.7211 20.0102
472 26.6797 14.1489 20.0101
473 26.6797 15.7211 17.7869
474 28.9032 14.1489 17.7868
475 28.9031 15.7211 15.5638
476 20.0094 15.7211 28.904
477 22.2324 14.1489 28.904
478 22.2326 15.7211 26.6804
479 24.4558 14.1489 26.6803
480 24.456 15.7211 24.4568
481 26.6794 14.1489 24.4566
482 26.6796 15.7211 22.2333
483 28.9031 14.1489 22.233
484 28.9032 15.7211 20.0099
485 24.4554 15.7209 28.904
486 26.6786 14.1489 28.9038
487 26.679 15.7208 26.6801
488 28.9025 14.1489 26.6798
489 28.9028 15.7208 24.4562
490 28.902 15.7203 28.9035
491 31.1257 11.0069 2.22374
492 31.1257 12.5784 -0.000922181
493 2.2217 11.0089 -0.00105906
494 31.126 11.0054 6.67139
495 31.1261 12.5774 4.44748
496 2.22148 11.0064 4.44794
497 2.22168 12.5779 2.22348
498 4.44578 11.0057 2.22302
499 4.44625 12.5779 -0.00107962
500 6.6707 11.0064 31.1273
501 31.1265 11.0048 11.1179
502 31.1264 12.577 8.89446
503 2.22164 11.0053 8.89489
504 2.22162 12.5773 6.67111
505 4.44553 11.0049 6.67054
506 4.4456 12.577 4.44683
507 6.66928 11.0048 4.44652
508 6.6696 12.577 2.22284
509 8.8933 11.0049 2.22277
510 8.89387 12.5773 -0.00113714
511 11.1177 11.0053 -0.00111968
512 31.1268 11.0044 15.5638
513 31.1267 12.5767 13.3407
514 2.2218 11.0046 13.3408
515 2.22175 12.5769 11.1177
516 4.4455 11.0046 11.1173
517 4.44549 12.5768 8.89387
518 6.66907 11.0045 8.8935
519 6.66912 12.5767 6.67004
520 8.89259 11.0045 6.66983
521 8.8928 12.5767 4.44636
522 11.1163 11.0045 4.44631
523 11.1166 12.5768 2.22273
524 13.3401 11.0046 2.22273
525 13.3404 12.5769 -0.00101851
526 15.5636 11.0046 -0.000964772
527 31.1268 11.0045 20.0096
528 31.1268 12.5766 17.7867
529 2.22193 11.0044 17.7866
530 2.22188 12.5767 15.5636
531 4.44556 11.0044 15.5635
532 4.44551 12.5767 13.3403
533 6.66909 11.0044 13.3401
534 6.66906 12.5767 11.1168
535 8.89251 11.0044 11.1166
536 8.89251 12.5766 8.89323
537 11.1159 11.0043 8.89314
538 11.116 12.5766 6.66975
539 13.3393 11.0044 6.66974
540 13.3395 12.5767 4.44629
541 15.5628 11.0044 4.44632
542 15.5631 12.5767 2.22274
543 17.7862 11.0044 2.22278
544 17.7864 12.5767 -0.00089693
545 20.0093 11.0044 -0.000841798
546 31.1265 11.0052 24.4556
547 31.1267 12.5768 22.2326
548 2.222 11.005 22.2319
549 2.22197 12.5767 20.0093
550 4.44575 11.0046 20.0092
551 4.44564 12.5767 17.7863
552 6.66926 11.0044 17.7863
553 6.66915 12.5766 15.5632
554 8.89265 11.0044 15.5631
555 8.89256 12.5766 13.3398
556 11.116 11.0043 13.3398
557 11.1159 12.5766 11.1165
558 13.3393 11.0043 11.1165
559 13.3392 12.5766 8.89313
560 15.5626 11.0043 8.89319
561 15.5626 12.5766 6.66978
562 17.7859 11.0043 6.66987
563 17.7859 12.5766 4.44637
564 20.009 11.0044 4.44648
565 20.0091 12.5767 2.22286
566 22.232 11.0046 2.22298
567 22.2321 12.5767 -0.000796153
568 24.4547 11.005 -0.000758566
569 31.1256 11.0072 28.9029
570 31.1263 12.5775 26.6792
571 2.22193 11.0071 26.678
572 2.22199 12.5774 24.4552
573 4.4461 11.0054 24.4553
574 4.44587 12.5769 22.2323
575 6.66963 11.0047 22.2324
576 6.6694 12.5767 20.0094
577 8.89296 11.0045 20.0095
578 8.89278 12.5766 17.7863
579 11.1162 11.0044 17.7863
580 11.1161 12.5766 15.5631
581 13.3394 11.0043 15.5631
582 13.3393 12.5766 13.3398
583 15.5627 11.0043 13.3399
584 15.5626 12.5766 11.1166
585 17.7859 11.0043 11.1167
586 17.7858 12.5766 8.89329
587 20.0091 11.0044 8.89344
588 20.009 12.5766 6.66999
589 22.2322 11.0045 6.67019
590 22.2321 12.5767 4.44663
591 24.4552 11.0048 4.44687
592 24.4551 12.5769 2.22311
593 26.6781 11.0054 2.22334
594 26.678 12.5774 -0.000770948
595 28.9007 11.0071 -0.000827483
596 2.22184 12.5784 28.903
597 4.4465 11.0069 28.9029
598 4.44616 12.5775 26.6792
599 6.6702 11.0055 26.6792
600 6.6698 12.577 24.4559
601 8.89348 11.0048 24.456
602 8.89314 12.5767 22.2328
603 11.1166 11.0045 22.2329
604 11.1164 12.5766 20.0096
605 13.3398 11.0044 20.0097
606 13.3396 12.5766 17.7864
607 15.5629 11.0043 17.7865
608 15.5628 12.5766 15.5632
609 17.7861 11.0043 15.5633
610 17.786 12.5766 13.34
611 20.0093 11.0043 13.3402
612 20.0092 12.5766 11.1168
613 22.2325 11.0044 11.117
614 22.2324 12.5766 8.89361
615 24.4556 11.0045 8.89387
616 24.4555 12.5768 6.67038
617 26.6788 11.0048 6.67073
618 26.6787 12.577 4.44704
619 28.902 11.0055 4.44745
620 28.902 12.5775 2.2234
621 6.67024 12.5774 28.9033
622 8.89415 11.0054 28.9033
623 8.89364 12.577 26.6797
624 11.1172 11.0048 26.6798
625 11.1168 12.5768 24.4564
626 13.3402 11.0045 24.4565
627 13.3399 12.5766 22.2331
628 15.5632 11.0044 22.2333
629 15.5631 12.5766 20.0099
630 17.7864 11.0043 20.01
631 17.7862 12.5766 17.7867
632 20.0095 11.0043 17.7868
633 20.0094 12.5766 15.5635
634 22.2328 11.0043 15.5636
635 22.2326 12.5766 13.3403
636 24.456 11.0044 13.3405
637 24.4559 12.5767 11.1172
638 26.6793 11.0045 11.1174
639 26.6791 12.5768 8.89406
640 28.9026 11.0048 8.89445
641 28.9025 12.577 6.67088
642 11.1172 12.577 28.9036
643 13.3406 11.0048 28.9037
644 13.3403 12.5768 26.6801
645 15.5636 11.0045 26.6802
646 15.5633 12.5766 24.4567
647 17.7866 11.0044 24.4568
648 17.7864 12.5766 22.2334
649 20.0097 11.0043 22.2335
650 20.0096 12.5766 20.0101
651 22.2329 11.0043 20.0102
652 22.2329 12.5766 17.7869
653 24.4562 11.0043 17.7869
654 24.4561 12.5766 15.5637
655 26.6796 11.0044 15.5638
656 26.6795 12.5766 13.3406
657 28.903 11.0045 13.3408
658 28.9029 12.5768 11.1175
659 15.5635 12.5767 28.9039
660 17.7866 11.0044 28.904
661 17.7865 12.5766 26.6804
662 20.0096 11.0044 26.6804
663 20.0097 12.5766 24.4569
664 22.2329 11.0044 24.4569
665 22.2329 12.5766 22.2335
666 24.4562 11.0044 22.2335
667 24.4563 12.5766 20.0102
668 26.6797 11.0044 20.0101
669 26.6797 12.5766 17.7869
670 28.9032 11.0044 17.7869
671 28.9031 12.5766 15.5638
672 20.0094 12.5766 28.904
673 22.2323 11.0045 28.904
674 22.2327 12.5766 26.6804
675 24.4558 11.0046 26.6803
676 24.4561 12.5767 24.4568
677 26.6794 11.0046 24.4566
678 26.6796 12.5767 22.2333
679 28.9031 11.0046 22.233
680 28.9032 12.5766 20.0099
681 24.4554 12.5768 28.904
682 26.6783 11.0052 28.9038
683 26.679 12.5769 26.6801
684 28.9024 11.0053 26.6796
685 28.9029 12.5769 24.4563
686 28.902 12.5775 28.9036
687 31.1242 7.86565 2.2249
688 31.1232 9.43914 -0.00118204
689 2.22059 7.8772 31.1264
690 31.1252 7.86175 6.67289
691 31.1253 9.43446 4.44843
692 2.22075 7.86542 4.45174
693 2.2212 9.43664 2.22492
694 4.44502 7.86172 2.22226
695 4.44768 9.43664 31.127
696 6.6745 7.86542 31.1266
697 31.1263 7.86056 11.1187
698 31.1261 9.43311 8.89518
699 2.22147 7.86189 8.89691
700 2.22142 9.4346 6.6727
701 4.44561 7.86092 6.67146
702 4.44561 9.43322 4.44693
703 6.66924 7.86055 4.44649
704 6.66969 9.43322 2.22285
705 8.89421 7.86091 2.22286
706 8.89545 9.4346 31.1272
707 11.1197 7.86188 31.1273
708 31.1268 7.85989 15.5641
709 31.1266 9.4324 13.3411
710 2.22177 7.86007 13.3411
711 2.22169 9.43287 11.1183
712 4.44554 7.86032 11.118
713 4.44553 9.43273 8.89438
714 6.66913 7.86003 8.89371
715 6.66911 9.43242 6.6701
716 8.89258 7.85999 6.66983
717 8.89285 9.43242 4.44636
718 11.1165 7.86003 4.44638
719 11.1171 9.43273 2.22277
720 13.3407 7.86031 2.22279
721 13.3411 9.43286 -0.00107116
722 15.5638 7.86006 -0.000990699
723 31.1269 7.85983 20.0099
724 31.1268 9.4321 17.7869
725 2.22194 7.85981 17.7868
726 2.22187 9.43216 15.5638
727 4.44554 7.85986 15.5636
728 4.44552 9.4323 13.3406
729 6.66911 7.85989 13.3403
730 6.66908 9.43222 11.117
731 8.89252 7.85982 11.1167
732 8.89251 9.43215 8.89326
733 11.1159 7.8598 8.89313
734 11.116 9.43214 6.66975
735 13.3394 7.85981 6.66976
736 13.3397 9.43221 4.44632
737 15.5631 7.85988 4.44634
738 15.5634 9.43229 2.22275
739 17.7864 7.85985 2.22277
740 17.7866 9.43216 -0.000900313
741 20.0096 7.85981 -0.000829129
742 31.1263 7.861 24.4549
743 31.1267 9.43258 22.2324
744 2.22201 7.86021 22.2324
745 2.22197 9.43223 20.0095
746 4.44573 7.85991 20.0095
747 4.44562 9.43213 17.7865
748 6.66923 7.85984 17.7864
749 6.66915 9.43212 15.5633
750 8.89264 7.8598 15.5632
751 8.89256 9.43207 13.3399
752 11.116 7.85977 13.3398
753 11.1159 9.43205 11.1165
754 13.3392 7.85976 11.1165
755 13.3393 9.43205 8.89313
756 15.5626 7.85976 8.89319
757 15.5627 9.43207 6.66979
758 17.7859 7.8598 6.66987
759 17.7861 9.43211 4.44637
760 20.0092 7.85984 4.44646
761 20.0093 9.43213 2.22285
762 22.2323 7.85991 2.22296
763 22.2322 9.43223 -0.000788741
764 24.4551 7.86021 -0.000745258
765 31.1241 7.86581 28.9013
766 31.126 9.43442 26.6784
767 2.22196 7.86634 26.6725
768 2.22202 9.43434 24.4537
769 4.44648 7.86169 24.4537
770 4.44598 9.43284 22.2318
771 6.66979 7.86036 22.2321
772 6.66944 9.43231 20.0093
773 8.89301 7.85996 20.0094
774 8.89279 9.43213 17.7863
775 11.1162 7.85982 17.7863
776 11.1161 9.43206 15.5631
777 13.3395 7.85977 15.5631
778 13.3393 9.43203 13.3398
779 15.5627 7.85976 13.3399
780 15.5626 9.43203 11.1166
781 17.7859 7.85977 11.1167
782 17.7858 9.43206 8.89329
783 20.0091 7.85982 8.89347
784 20.009 9.43213 6.67001
785 22.2321 7.85996 6.67025
786 22.232 9.43231 4.44667
787 24.4548 7.86036 4.44704
788 24.4546 9.43284 2.22322
789 26.6765 7.86168 2.22373
790 26.6764 9.43434 -0.000737189
791 28.8952 7.86634 -0.000793436
792 2.22157 9.43914 28.9005
793 4.44765 7.86565 28.9014
794 4.44653 9.43471 26.6782
795 6.67098 7.86189 26.6782
796 6.67006 9.43308 24.4554
797 8.89385 7.86053 24.4555
798 8.89327 9.43243 22.2326
799 11.1168 7.86003 22.2327
800 11.1164 9.43217 20.0095
801 13.3398 7.85984 20.0097
802 13.3396 9.43207 17.7864
803 15.563 7.85978 17.7865
804 15.5628 9.43204 15.5632
805 17.7861 7.85976 15.5634
806 17.786 9.43204 13.34
807 20.0093 7.85978 13.3402
808 20.0092 9.43207 11.1168
809 22.2324 7.85985 11.1171
810 22.2323 9.43218 8.89366
811 24.4555 7.86004 8.89403
812 24.4553 9.43244 6.67051
813 26.6783 7.86054 6.6711
814 26.6782 9.43309 4.44731
815 28.9009 7.86189 4.44823
816 28.9009 9.43471 2.22378
817 6.67119 9.43446 28.9026
818 8.89564 7.86175 28.9025
819 8.89414 9.43311 26.6792
820 11.1178 7.86055 26.6793
821 11.117 9.43248 24.4561
822 13.3405 7.86005 24.4563
823 13.34 9.43219 22.233
824 15.5634 7.85985 22.2332
825 15.5631 9.43208 20.0099
826 17.7864 7.85977 20.01
827 17.7863 9.43204 17.7867
828 20.0096 7.85976 17.7868
829 20.0094 9.43204 15.5635
830 22.2328 7.85978 15.5637
831 22.2326 9.43208 13.3403
832 24.456 7.85986 13.3406
833 24.4558 9.4322 11.1173
834 26.6791 7.86007 11.1177
835 26.6789 9.43249 8.89429
836 28.9021 7.86056 8.8951
837 28.902 9.43311 6.67139
838 11.1179 9.4331 28.9033
839 13.3415 7.86055 28.9035
840 13.3406 9.43247 26.6799
841 15.5639 7.86003 26.6801
842 15.5635 9.43218 24.4567
843 17.7868 7.85983 24.4568
844 17.7865 9.43207 22.2334
845 20.0098 7.85976 22.2335
846 20.0097 9.43203 20.0101
847 22.233 7.85975 20.0103
848 22.2329 9.43204 17.7869
849 24.4563 7.85977 17.7871
850 24.4561 9.43208 15.5638
851 26.6796 7.85984 15.564
852 26.6794 9.4322 13.3408
853 28.9029 7.86004 13.3411
854 28.9027 9.43248 11.1179
855 15.5639 9.43239 28.9038
856 17.7868 7.85988 28.904
857 17.7867 9.43215 26.6804
858 20.0099 7.85979 26.6805
859 20.0098 9.43206 24.4569
860 22.233 7.85977 24.457
861 22.233 9.43204 22.2335
862 24.4563 7.85977 22.2336
863 24.4563 9.43204 20.0102
864 26.6798 7.85977 20.0103
865 26.6797 9.43207 17.787
866 28.9032 7.8598 17.7871
867 28.9031 9.43216 15.564
868 20.0096 9.4321 28.9041
869 22.2327 7.85982 28.9041
870 22.2327 9.43213 26.6804
871 24.4559 7.85995 26.6803
872 24.4561 9.43215 24.4569
873 26.6794 7.86001 24.4567
874 26.6796 9.43215 22.2334
875 28.9031 7.85995 22.2331
876 28.9032 9.43213 20.01
877 24.4552 9.43258 28.9039
878 26.6777 7.861 28.9035
879 26.6789 9.43269 26.68
880 28.902 7.86122 26.6793
881 28.9028 9.43269 24.4561
882 28.9012 9.43442 28.9032
883 31.1163 4.72635 2.22469
884 31.1051 6.3071 31.1267
885 2.19363 4.8339 31.0995
886 31.1233 4.71741 6.67741
887 31.1226 6.2906 4.45115
888 2.21912 4.72957 4.47165
889 2.21824 6.29609 2.23522
890 4.44437 4.71806 2.22163
891 4.45798 6.29609 31.1241
892 6.69439 4.72957 31.1249
893 31.1262 4.71552 11.1189
894 31.1255 6.28899 8.89714
895 2.22124 4.71596 8.8969
896 2.22091 6.29296 6.67879
897 4.44611 4.71623 6.6742
898 4.44596 6.28918 4.44824
899 6.66855 4.71524 4.44581
900 6.67099 6.28918 2.22321
901 8.89694 4.71622 2.22337
902 8.90154 6.29295 31.1267
903 11.1196 4.71596 31.1271
904 31.1268 4.71526 15.5642
905 31.1266 6.28774 13.3413
906 2.22173 4.71533 13.3412
907 2.22161 6.28804 11.1186
908 4.44545 4.71542 11.1181
909 4.44571 6.28844 8.89574
910 6.66924 4.71532 8.89414
911 6.66921 6.2878 6.67018
912 8.8924 4.71527 6.66966
913 8.89293 6.2878 4.44646
914 11.1169 4.71531 4.4465
915 11.1185 6.28843 2.22296
916 13.3409 4.71541 2.22271
917 13.3414 6.28803 -0.00114883
918 15.564 4.71533 -0.00102797
919 31.127 4.7152 20.0102
920 31.1269 6.28751 17.7871
921 2.22195 4.71522 17.787
922 2.22186 6.28757 15.564
923 4.44552 4.71524 15.5638
924 4.44548 6.28766 13.3408
925 6.66908 4.71526 13.3404
926 6.66914 6.28766 11.1173
927 8.89253 4.71522 11.1167
928 8.8925 6.28755 8.89325
929 11.1158 4.71522 8.8931
930 11.116 6.28755 6.66975
931 13.3395 4.71522 6.66979
932 13.34 6.28765 4.44639
933 15.5632 4.71525 4.44632
934 15.5636 6.28765 2.22273
935 17.7865 4.71524 2.22276
936 17.7867 6.28757 -0.000904357
937 20.0097 4.71522 -0.000807801
938 31.1269 4.71522 24.4565
939 31.1269 6.28758 22.2331
940 2.22214 4.71526 22.233
941 2.22202 6.28753 20.0099
942 4.44572 4.71524 20.0098
943 4.4456 6.28753 17.7867
944 6.66921 4.71523 17.7865
945 6.66912 6.28753 15.5634
946 8.89263 4.71522 15.5632
947 8.89257 6.28751 13.34
948 11.116 4.71521 13.3398
949 11.1159 6.28749 11.1165
950 13.3392 4.7152 11.1165
951 13.3392 6.28749 8.89313
952 15.5626 4.7152 8.8932
953 15.5628 6.28751 6.66981
954 17.786 4.71522 6.66987
955 17.7862 6.28753 4.44636
956 20.0093 4.71523 4.44645
957 20.0094 6.28752 2.22284
958 22.2325 4.71524 2.22297
959 22.2326 6.28752 -0.000740409
960 24.4558 4.71526 -0.000604291
961 31.1252 4.71922 28.9025
962 31.1252 6.28986 26.6772
963 2.22206 4.71606 26.678
964 2.22201 6.28828 24.4552
965 4.44629 4.71541 24.4556
966 4.44592 6.28772 22.2325
967 6.6697 4.71534 22.2325
968 6.6694 6.2876 20.0095
969 8.89299 4.71527 20.0095
970 8.89277 6.28753 17.7864
971 11.1162 4.71523 17.7863
972 11.1161 6.2875 15.5631
973 13.3395 4.71521 15.5631
974 13.3393 6.28748 13.3398
975 15.5627 4.7152 13.3399
976 15.5626 6.28748 11.1166
977 17.7859 4.7152 11.1167
978 17.7859 6.28749 8.8933
979 20.0091 4.71523 8.89347
980 20.0091 6.28753 6.67
981 22.2322 4.71527 6.67023
982 22.2322 6.2876 4.44664
983 24.4552 4.71534 4.44696
984 24.4553 6.28772 2.22317
985 26.6783 4.71541 2.22355
986 26.6779 6.28828 -0.000733705
987 28.9008 4.71606 -0.00068008
988 2.2209 6.3071 28.8824
989 4.44744 4.72635 28.8936
990 4.44767 6.29179 26.6742
991 6.6721 4.71709 26.6761
992 6.67053 6.2886 24.4545
993 8.89431 4.71565 24.4549
994 8.89343 6.28783 22.2323
995 11.117 4.71534 22.2325
996 11.1165 6.28759 20.0095
997 13.3399 4.71524 20.0096
998 13.3396 6.28751 17.7864
999 15.563 4.71521 17.7865
1000 15.5628 6.28749 15.5632
1001 17.7861 4.7152 15.5634
1002 17.786 6.28748 13.34
1003 20.0093 4.71521 13.3402
1004 20.0092 6.28751 11.1169
1005 22.2324 4.71525 11.1171
1006 22.2322 6.2876 8.89373
1007 24.4553 4.71534 8.8942
1008 24.4551 6.28783 6.67068
1009 26.6777 4.71565 6.67157
1010 26.6772 6.28861 4.44779
1011 28.8988 4.71709 4.44936
1012 28.8969 6.29178 2.22493
1013 6.6739 6.2906 28.8999
1014 8.90016 4.71741 28.9005
1015 8.89521 6.28866 26.6782
1016 11.119 4.71572 26.6787
1017 11.1175 6.28791 24.4557
1018 13.3408 4.71536 24.4561
1019 13.3402 6.28762 22.2329
1020 15.5635 4.71525 22.2331
1021 15.5632 6.28752 20.0098
1022 17.7865 4.71521 20.01
1023 17.7863 6.28748 17.7867
1024 20.0096 4.7152 17.7868
1025 20.0094 6.28749 15.5635
1026 22.2328 4.71521 15.5637
1027 22.2326 6.28752 13.3404
1028 24.4559 4.71525 13.3408
1029 24.4557 6.28763 11.1175
1030 26.6789 4.71536 11.1181
1031 26.6785 6.28792 8.89471
1032 28.9014 4.71572 8.89624
1033 28.9009 6.28866 6.67247
1034 11.1199 6.28898 28.9027
1035 13.3417 4.71552 28.9034
1036 13.3413 6.28794 26.6797
1037 15.5641 4.71532 26.6801
1038 15.5638 6.28762 24.4566
1039 17.7869 4.71524 24.4568
1040 17.7867 6.28751 22.2334
1041 20.0099 4.7152 22.2336
1042 20.0098 6.28748 20.0102
1043 22.2331 4.71519 20.0103
1044 22.2329 6.28748 17.787
1045 24.4563 4.7152 17.7872
1046 24.4561 6.28752 15.5639
1047 26.6796 4.71524 15.5641
1048 26.6793 6.28763 13.341
1049 28.9029 4.71533 13.3413
1050 28.9024 6.28795 11.1185
1051 15.5641 6.28773 28.9038
1052 17.7869 4.71525 28.904
1053 17.7869 6.28756 26.6804
1054 20.01 4.71521 26.6805
1055 20.01 6.28749 24.457
1056 22.2332 4.71519 24.4571
1057 22.2331 6.28746 22.2336
1058 24.4565 4.71517 22.2337
1059 24.4564 6.28746 20.0104
1060 26.6799 4.71519 20.0104
1061 26.6798 6.28749 17.7872
1062 28.9033 4.71521 17.7872
1063 28.9031 6.28757 15.5642
1064 20.0098 6.2875 28.9041
1065 22.233 4.7152 28.9042
1066 22.233 6.28747 26.6806