ITEM: TIMESTEP
221
ITEM: NUMBER OF ATOMS
687
ITEM: BOX BOUNDS pp pp pp
-2.3174010900032355e-03 2.2011864401090012e+01
-2.3174006717839057e-03 2.2011864400671769e+01
-9.9940809807675833e-04 2.2010546408098069e+01
ITEM: ATOMS id x y z
1 22.009 -0.0023174 0.000472202
2 1.57012 1.6882 1.53124
3 3.14538 -0.0023174 0.000472201
4 4.72359 1.58134 1.56505
5 6.28941 -0.0023174 -0.00042096
6 7.86453 1.57205 1.57017
7 9.43373 -0.0023174 22.01
8 11.0061 1.57071 1.57084
9 12.5772 -0.0023174 22.01
10 14.1483 1.57071 1.57084
11 15.7207 -0.0023174 22.01
12 17.2899 1.57205 1.57017
13 18.865 -0.0023174 -0.000420961
14 20.4308 1.58134 1.56505
15 21.9974 3.16217 21.9944
16 1.57012 4.73264 1.56936
17 3.15704 3.16217 21.9944
18 4.71819 4.72096 1.5708
19 6.29312 3.14693 22.0074
20 7.86237 4.71724 1.57083
21 9.43442 3.14381 22.0096
22 11.0056 4.71607 1.57097
23 12.5772 3.14327 22.0099
24 14.1488 4.71607 1.57097
25 15.72 3.14381 22.0096
26 17.2921 4.71724 1.57083
27 18.8613 3.14693 22.0074
28 20.4362 4.72096 1.5708
29 22.0096 6.29459 22.0076
30 1.57012 7.86452 1.57094
31 3.14481 6.29459 22.0076
32 4.71633 7.86248 1.57109
33 6.28953 6.29017 22.0095
34 7.86113 7.86115 1.57108
35 9.43351 6.28865 22.0099
36 11.0052 7.8606 1.5711
37 12.5772 6.28826 22.0101
38 14.1492 7.8606 1.5711
39 15.7209 6.28865 22.0099
40 17.2933 7.86115 1.57108
41 18.8649 6.29017 22.0095
42 20.4381 7.86248 1.57109
43 22.0112 9.43414 22.0096
44 1.57012 11.0048 1.57108
45 3.14324 9.43414 22.0096
46 4.71587 11.0048 1.57113
47 6.28855 9.43325 22.01
48 7.86079 11.0048 1.57114
49 9.43305 9.43279 22.0101
50 11.0051 11.0048 1.57114
51 12.5772 9.43266 22.0102
52 14.1493 11.0048 1.57114
53 15.7214 9.43279 22.0101
54 17.2936 11.0048 1.57114
55 18.8659 9.43325 22.01
56 20.4386 11.0048 1.57113
57 22.0112 12.5754 22.0096
58 1.57012 14.145 1.57094
59 3.14324 12.5754 22.0096
60 4.71633 14.1471 1.57109
61 6.28855 12.5763 22.01
62 7.86113 14.1484 1.57108
63 9.43305 12.5768 22.0101
64 11.0052 14.1489 1.5711
65 12.5772 12.5769 22.0102
66 14.1492 14.1489 1.5711
67 15.7214 12.5768 22.0101
68 17.2933 14.1484 1.57108
69 18.8659 12.5763 22.01
70 20.4381 14.1471 1.57109
71 22.0096 15.715 22.0076
72 1.57012 17.2769 1.56936
73 3.14481 15.715 22.0076
74 4.71819 17.2886 1.5708
75 6.28953 15.7194 22.0095
76 7.86237 17.2923 1.57083
77 9.43351 15.7209 22.0099
78 11.0056 17.2935 1.57097
79 12.5772 15.7213 22.0101
80 14.1488 17.2935 1.57097
81 15.7209 15.7209 22.0099
82 17.2921 17.2923 1.57083
83 18.8649 15.7194 22.0095
84 20.4362 17.2886 1.5708
85 21.9974 18.8474 21.9944
86 1.57012 20.3213 1.53124
87 3.15704 18.8474 21.9944
88 4.72359 20.4282 1.56505
89 6.29312 18.8626 22.0074
90 7.86453 20.4375 1.57017
91 9.43442 18.8657 22.0096
92 11.0061 20.4388 1.57084
93 12.5772 18.8663 22.0099
94 14.1483 20.4388 1.57084
95 15.72 18.8657 22.0096
96 17.2899 20.4375 1.57017
97 18.8613 18.8626 22.0074
98 20.4308 20.4282 1.56505
99 21.8938 -0.0023174 3.18352
100 1.57012 1.57294 4.71429
101 3.26064 -0.0023174 3.18352
102 4.73461 1.5846 4.73191
103 6.30509 -0.0023174 3.1454
104 7.86703 1.57237 4.71871
105 9.43697 -0.0023174 3.14382
106 11.0066 1.5708 4.71673
107 12.5772 -0.0023174 3.14368
108 14.1478 1.5708 4.71673
109 15.7175 -0.0023174 3.14382
110 17.2874 1.57237 4.71871
111 18.8493 -0.0023174 3.1454
112 20.4198 1.5846 4.73191
113 22.0007 3.15115 3.14971
114 1.57012 4.71696 4.71518
115 3.15378 3.15115 3.14971
116 4.71937 4.72068 4.7189
117 6.2934 3.14574 3.14396
118 7.86261 4.71709 4.71685
119 9.43492 3.14389 3.14367
120 11.0057 4.7161 4.71635
121 12.5772 3.14343 3.14363
122 14.1487 4.7161 4.71635
123 15.7195 3.14389 3.14367
124 17.2918 4.71709 4.71685
125 18.861 3.14574 3.14396
126 20.4351 4.72068 4.7189
127 22.0099 6.29209 3.14459
128 1.57012 7.86129 4.71626
129 3.1445 6.29209 3.14459
130 4.71625 7.86198 4.71672
131 6.28968 6.28992 3.14393
132 7.86109 7.86107 4.71636
133 9.43359 6.28869 3.14369
134 11.0052 7.86061 4.71616
135 12.5772 6.28835 3.14362
136 14.1492 7.86061 4.71616
137 15.7208 6.28869 3.14369
138 17.2933 7.86107 4.71636
139 18.8647 6.28992 3.14393
140 20.4382 7.86198 4.71672
141 22.0113 9.43368 3.14392
142 1.57012 11.0048 4.7163
143 3.14315 9.43368 3.14392
144 4.71571 11.0048 4.71639
145 6.28851 9.43317 3.14379
146 7.8607 11.0048 4.71623
147 9.43304 9.4328 3.14366
148 11.0051 11.0048 4.7161
149 12.5772 9.43268 3.14362
150 14.1493 11.0048 4.7161
151 15.7214 9.4328 3.14366
152 17.2937 11.0048 4.71623
153 18.8659 9.43317 3.14379
154 20.4387 11.0048 4.71639
155 22.0113 12.5759 3.14392
156 1.57012 14.1483 4.71626
157 3.14315 12.5759 3.14392
158 4.71625 14.1476 4.71672
159 6.28851 12.5764 3.14379
160 7.86109 14.1485 4.71636
161 9.43304 12.5767 3.14366
162 11.0052 14.1489 4.71616
163 12.5772 12.5769 3.14362
164 14.1492 14.1489 4.71616
165 15.7214 12.5767 3.14366
166 17.2933 14.1485 4.71636
167 18.8659 12.5764 3.14379
168 20.4382 14.1476 4.71672
169 22.0099 15.7175 3.14459
170 1.57012 17.2926 4.71518
171 3.1445 15.7175 3.14459
172 4.71937 17.2889 4.7189
173 6.28968 15.7196 3.14393
174 7.86261 17.2925 4.71685
175 9.43359 15.7209 3.14369
176 11.0057 17.2934 4.71635
177 12.5772 15.7212 3.14362
178 14.1487 17.2934 4.71635
179 15.7208 15.7209 3.14369
180 17.2918 17.2925 4.71685
181 18.8647 15.7196 3.14393
182 20.4351 17.2889 4.7189
183 22.0007 18.8584 3.14971
184 1.57012 20.4366 4.71429
185 3.15378 18.8584 3.14971
186 4.73461 20.425 4.73191
187 6.2934 18.8638 3.14396
188 7.86703 20.4372 4.71871
189 9.43492 18.8657 3.14367
190 11.0066 20.4388 4.71673
191 12.5772 18.8661 3.14363
192 14.1478 20.4388 4.71673
193 15.7195 18.8657 3.14367
194 17.2874 20.4372 4.71871
195 18.861 18.8638 3.14396
196 20.4198 20.425 4.73191
197 22.0079 -0.0023174 6.29064
198 1.57012 1.57017 7.85983
199 3.14656 -0.0023174 6.29064
200 4.7174 1.57118 7.86408
201 6.29352 -0.0023174 6.29219
202 7.86228 1.57092 7.86266
203 9.43524 -0.0023174 6.28997
204 11.0057 1.57056 7.8618
205 12.5772 -0.0023174 6.28934
206 14.1488 1.57056 7.8618
207 15.7192 -0.0023174 6.28997
208 17.2922 1.57092 7.86266
209 18.8609 -0.0023174 6.29219
210 20.437 1.57118 7.86408
211 22.011 3.14428 6.2899
212 1.57012 4.7158 7.86073
213 3.14346 3.14428 6.2899
214 4.71584 4.71618 7.86172
215 6.29405 3.14812 6.29388
216 7.86223 4.71723 7.86277
217 9.43511 3.14423 6.29
218 11.0056 4.7161 7.86167
219 12.5772 3.14349 6.28923
220 14.1488 4.7161 7.86167
221 15.7193 3.14423 6.29
222 17.2922 4.71723 7.86277
223 18.8604 3.14812 6.29388
224 20.4386 4.71618 7.86172
225 22.0116 6.28864 6.28869
226 1.57012 7.8604 7.86071
227 3.14282 6.28864 6.28869
228 4.71531 7.86054 7.86093
229 6.28945 6.29005 6.28987
230 7.86081 7.86099 7.86137
231 9.43349 6.28869 6.28899
232 11.0051 7.86056 7.86106
233 12.5772 6.28833 6.28876
234 14.1493 7.86056 7.86106
235 15.7209 6.28869 6.28899
236 17.2936 7.86099 7.86137
237 18.865 6.29005 6.28987
238 20.4391 7.86054 7.86093
239 22.0117 9.43279 6.28859
240 1.57012 11.0048 7.86068
241 3.14277 9.43279 6.28859
242 4.71524 11.0048 7.86078
243 6.28825 9.43307 6.28885
244 7.86045 11.0048 7.861
245 9.43294 9.43278 6.28862
246 11.005 11.0048 7.86086
247 12.5772 9.43267 6.28853
248 14.1494 11.0048 7.86086
249 15.7215 9.43278 6.28862
250 17.294 11.0048 7.861
251 18.8662 9.43307 6.28885
252 20.4392 11.0048 7.86078
253 22.0117 12.5768 6.28859
254 1.57012 14.1491 7.86071
255 3.14277 12.5768 6.28859
256 4.71531 14.149 7.86093
257 6.28825 12.5765 6.28885
258 7.86081 14.1486 7.86137
259 9.43294 12.5768 6.28862
260 11.0051 14.149 7.86106
261 12.5772 12.5769 6.28853
262 14.1493 14.149 7.86106
263 15.7215 12.5768 6.28862
264 17.2936 14.1486 7.86137
265 18.8662 12.5765 6.28885
266 20.4391 14.149 7.86093
267 22.0116 15.7209 6.28869
268 1.57012 17.2937 7.86073
269 3.14282 15.7209 6.28869
270 4.71584 17.2934 7.86172
271 6.28945 15.7195 6.28987
272 7.86223 17.2923 7.86277
273 9.43349 15.7209 6.28899
274 11.0056 17.2934 7.86167
275 12.5772 15.7212 6.28876
276 14.1488 17.2934 7.86167
277 15.7209 15.7209 6.28899
278 17.2922 17.2923 7.86277
279 18.865 15.7195 6.28987
280 20.4386 17.2934 7.86172
281 22.011 18.8653 6.2899
282 1.57012 20.4394 7.85983
283 3.14346 18.8653 6.2899
284 4.7174 20.4384 7.86408
285 6.29405 18.8614 6.29388
286 7.86228 20.4386 7.86266
287 9.43511 18.8653 6.29
288 11.0057 20.439 7.8618
289 12.5772 18.8661 6.28923
290 14.1488 20.439 7.8618
291 15.7193 18.8653 6.29
292 17.2922 20.4386 7.86266
293 18.8604 18.8614 6.29388
294 20.437 20.4384 7.86408
295 22.0116 -0.0023174 9.43322
296 1.57012 1.57017 11.0048
297 3.1428 -0.0023174 9.43322
298 4.71533 1.57023 11.0058
299 6.28892 -0.0023174 9.4346
300 7.86058 1.57035 11.006
301 9.43333 -0.0023174 9.43404
302 11.0051 1.57029 11.0058
303 12.5772 -0.0023174 9.43383
304 14.1494 1.57029 11.0058
305 15.7211 -0.0023174 9.43404
306 17.2938 1.57035 11.006
307 18.8655 -0.0023174 9.4346
308 20.4391 1.57023 11.0058
309 22.0118 3.14287 9.43313
310 1.57012 4.71527 11.0048
311 3.14261 3.14287 9.43313
312 4.71515 4.71531 11.0052
313 6.28871 3.14354 9.43468
314 7.8605 4.71561 11.0059
315 9.43327 3.14321 9.43402
316 11.0051 4.71545 11.0057
317 12.5772 3.14307 9.43378
318 14.1494 4.71545 11.0057
319 15.7212 3.14321 9.43402
320 17.2939 4.71561 11.0059
321 18.8657 3.14354 9.43468
322 20.4393 4.71531 11.0052
323 22.0118 6.28785 9.43286
324 1.57012 7.8601 11.0047
325 3.14264 6.28785 9.43286
326 4.71511 7.86014 11.0049
327 6.28795 6.28819 9.43344
328 7.86018 7.8603 11.0052
329 9.43312 6.28841 9.43377
330 11.005 7.86033 11.0054
331 12.5772 6.28819 9.43357
332 14.1494 7.86033 11.0054
333 15.7213 6.28841 9.43377
334 17.2942 7.8603 11.0052
335 18.8665 6.28819 9.43344
336 20.4393 7.86014 11.0049
337 22.0118 9.43251 9.43277
338 1.57012 11.0048 11.0047
339 3.14263 9.43251 9.43277
340 4.7151 11.0048 11.0048
341 6.28769 9.43259 9.43298
342 7.86009 11.0048 11.005
343 9.43275 9.4327 9.43321
344 11.0049 11.0048 11.0052
345 12.5772 9.43261 9.43315
346 14.1495 11.0048 11.0052
347 15.7217 9.4327 9.43321
348 17.2943 11.0048 11.005
349 18.8667 9.43259 9.43298
350 20.4393 11.0048 11.0048
351 22.0118 12.577 9.43277
352 1.57012 14.1494 11.0047
353 3.14263 12.577 9.43277
354 4.71511 14.1494 11.0049
355 6.28769 12.577 9.43298
356 7.86018 14.1492 11.0052
357 9.43275 12.5768 9.43321
358 11.005 14.1492 11.0054
359 12.5772 12.5769 9.43315
360 14.1494 14.1492 11.0054
361 15.7217 12.5768 9.43321
362 17.2942 14.1492 11.0052
363 18.8667 12.577 9.43298
364 20.4393 14.1494 11.0049
365 22.0118 15.7217 9.43286
366 1.57012 17.2943 11.0048
367 3.14264 15.7217 9.43286
368 4.71515 17.2942 11.0052
369 6.28795 15.7214 9.43344
370 7.8605 17.2939 11.0059
371 9.43312 15.7211 9.43377
372 11.0051 17.2941 11.0057
373 12.5772 15.7214 9.43357
374 14.1494 17.2941 11.0057
375 15.7213 15.7211 9.43377
376 17.2939 17.2939 11.0059
377 18.8665 15.7214 9.43344
378 20.4393 17.2942 11.0052
379 22.0118 18.8667 9.43313
380 1.57012 20.4394 11.0048
381 3.14261 18.8667 9.43313
382 4.71533 20.4393 11.0058
383 6.28871 18.866 9.43468
384 7.86058 20.4392 11.006
385 9.43327 18.8663 9.43402
386 11.0051 20.4393 11.0058
387 12.5772 18.8665 9.43378
388 14.1494 20.4393 11.0058
389 15.7212 18.8663 9.43402
390 17.2938 20.4392 11.006
391 18.8657 18.866 9.43468
392 20.4391 20.4393 11.0058
393 -0.0023075 -0.0023174 12.5772
394 1.57012 1.57011 14.1491
395 3.14256 -0.0023174 12.5772
396 4.7151 1.57013 14.1493
397 6.28777 -0.0023174 12.5777
398 7.86014 1.57018 14.1496
399 9.43265 -0.0023174 12.5778
400 11.0049 1.57018 14.1496
401 12.5772 -0.0023174 12.5777
402 14.1495 1.57018 14.1496
403 15.7218 -0.0023174 12.5778
404 17.2943 1.57018 14.1496
405 18.8667 -0.0023174 12.5777
406 20.4393 1.57013 14.1493
407 22.0119 3.14265 12.577
408 1.57012 4.71533 14.1486
409 3.14257 3.14265 12.577
410 4.71518 4.71527 14.1487
411 6.28772 3.14274 12.5776
412 7.86018 4.71522 14.1493
413 9.43264 3.14277 12.5777
414 11.0049 4.71517 14.1495
415 12.5772 3.14274 12.5777
416 14.1495 4.71517 14.1495
417 15.7218 3.14277 12.5777
418 17.2942 4.71522 14.1493
419 18.8667 3.14274 12.5776
420 20.4392 4.71527 14.1487
421 22.0118 6.2877 12.5767
422 1.57012 7.8602 14.1485
423 3.14262 6.2877 12.5767
424 4.71521 7.8602 14.1486
425 6.28766 6.28774 12.577
426 7.86024 7.86019 14.1489
427 9.43263 6.2878 12.5774
428 11.0049 7.8601 14.1492
429 12.5772 6.28773 12.5775
430 14.1495 7.8601 14.1492
431 15.7218 6.2878 12.5774
432 17.2942 7.86019 14.1489
433 18.8668 6.28774 12.577
434 20.4392 7.8602 14.1486
435 22.0118 9.43245 12.5767
436 1.57012 11.0048 14.1486
437 3.14262 9.43245 12.5767
438 4.71518 11.0048 14.1486
439 6.28761 9.43247 12.5768
440 7.86017 11.0048 14.1488
441 9.43254 9.43251 12.5771
442 11.0049 11.0048 14.1491
443 12.5772 9.43249 12.5772
444 14.1495 11.0048 14.1491
445 15.7219 9.43251 12.5771
446 17.2943 11.0048 14.1488
447 18.8668 9.43247 12.5768
448 20.4393 11.0048 14.1486
449 22.0118 12.5771 12.5767
450 1.57012 14.1493 14.1485
451 3.14262 12.5771 12.5767
452 4.71521 14.1493 14.1486
453 6.28761 12.5771 12.5768
454 7.86024 14.1494 14.1489
455 9.43254 12.577 12.5771
456 11.0049 14.1494 14.1492
457 12.5772 12.5771 12.5772
458 14.1495 14.1494 14.1492
459 15.7219 12.577 12.5771
460 17.2942 14.1494 14.1489
461 18.8668 12.5771 12.5768
462 20.4392 14.1493 14.1486
463 22.0118 15.7218 12.5767
464 1.57012 17.2942 14.1486
465 3.14262 15.7218 12.5767
466 4.71518 17.2943 14.1487
467 6.28766 15.7218 12.577
468 7.86018 17.2943 14.1493
469 9.43263 15.7217 12.5774
470 11.0049 17.2944 14.1495
471 12.5772 15.7218 12.5775
472 14.1495 17.2944 14.1495
473 15.7218 15.7217 12.5774
474 17.2942 17.2943 14.1493
475 18.8668 15.7218 12.577
476 20.4392 17.2943 14.1487
477 22.0119 18.8669 12.577
478 1.57012 20.4394 14.1491
479 3.14257 18.8669 12.577
480 4.7151 20.4394 14.1493
481 6.28772 18.8668 12.5776
482 7.86014 20.4394 14.1496
483 9.43264 18.8668 12.5777
484 11.0049 20.4394 14.1496
485 12.5772 18.8668 12.5777
486 14.1495 20.4394 14.1496
487 15.7218 18.8668 12.5777
488 17.2943 20.4394 14.1496
489 18.8667 18.8668 12.5776
490 20.4393 20.4394 14.1493
491 22.0118 -0.0023174 15.7215
492 1.57012 1.57036 17.2931
493 3.14261 -0.0023174 15.7215
494 4.71532 1.57017 17.2932
495 6.28771 -0.0023174 15.7215
496 7.8603 1.5702 17.2934
497 9.43254 -0.0023174 15.7216
498 11.0049 1.57019 17.2935
499 12.5772 -0.0023174 15.7216
500 14.1495 1.57019 17.2935
501 15.7219 -0.0023174 15.7216
502 17.2941 1.5702 17.2934
503 18.8667 -0.0023174 15.7215
504 20.4391 1.57017 17.2932
505 22.0118 3.14289 15.7205
506 1.57012 4.71648 17.2917
507 3.14267 3.14289 15.7205
508 4.71598 4.71627 17.2916
509 6.28775 3.14271 15.7211
510 7.86063 4.71551 17.2929
511 9.43258 3.14266 15.7214
512 11.005 4.71525 17.2933
513 12.5772 3.14266 15.7215
514 14.1494 4.71525 17.2933
515 15.7218 3.14266 15.7214
516 17.2938 4.71551 17.2929
517 18.8667 3.14271 15.7211
518 20.4385 4.71627 17.2916
519 22.0116 6.28814 15.7203
520 1.57012 7.86089 17.2923
521 3.14279 6.28814 15.7203
522 4.71565 7.86082 17.2923
523 6.28805 6.28806 15.7204
524 7.86086 7.86068 17.2925
525 9.43274 6.28774 15.7211
526 11.0051 7.8603 17.2931
527 12.5772 6.28765 15.7213
528 14.1493 7.8603 17.2931
529 15.7217 6.28774 15.7211
530 17.2936 7.86068 17.2925
531 18.8664 6.28806 15.7204
532 20.4388 7.86082 17.2923
533 22.0117 9.43264 15.7205
534 1.57012 11.0048 17.2925
535 3.14273 9.43264 15.7205
536 4.71551 11.0048 17.2925
537 6.28789 9.43261 15.7206
538 7.86063 11.0048 17.2927
539 9.43277 9.43255 15.7209
540 11.0051 11.0048 17.2932
541 12.5772 9.43251 15.7211
542 14.1494 11.0048 17.2932
543 15.7217 9.43255 15.7209
544 17.2938 11.0048 17.2927
545 18.8665 9.43261 15.7206
546 20.4389 11.0048 17.2925
547 22.0117 12.5769 15.7205
548 1.57012 14.1487 17.2923
549 3.14273 12.5769 15.7205
550 4.71565 14.1487 17.2923
551 6.28789 12.5769 15.7206
552 7.86086 14.1489 17.2925
553 9.43277 12.577 15.7209
554 11.0051 14.1492 17.2931
555 12.5772 12.577 15.7211
556 14.1493 14.1492 17.2931
557 15.7217 12.577 15.7209
558 17.2936 14.1489 17.2925
559 18.8665 12.5769 15.7206
560 20.4388 14.1487 17.2923
561 22.0116 15.7214 15.7203
562 1.57012 17.2931 17.2917
563 3.14279 15.7214 15.7203
564 4.71598 17.2933 17.2916
565 6.28805 15.7215 15.7204
566 7.86063 17.294 17.2929
567 9.43274 15.7218 15.7211
568 11.005 17.2943 17.2933
569 12.5772 15.7219 15.7213
570 14.1494 17.2943 17.2933
571 15.7217 15.7218 15.7211
572 17.2938 17.294 17.2929
573 18.8664 15.7215 15.7204
574 20.4385 17.2933 17.2916
575 22.0118 18.8667 15.7205
576 1.57012 20.4392 17.2931
577 3.14267 18.8667 15.7205
578 4.71532 20.4394 17.2932
579 6.28775 18.8668 15.7211
580 7.8603 20.4393 17.2934
581 9.43258 18.8669 15.7214
582 11.0049 20.4394 17.2935
583 12.5772 18.8669 15.7215
584 14.1495 20.4394 17.2935
585 15.7218 18.8669 15.7214
586 17.2941 20.4393 17.2934
587 18.8667 18.8668 15.7211
588 20.4391 20.4394 17.2932
589 22.0118 -0.0023174 18.8665
590 1.57012 1.57412 20.4357
591 3.14261 -0.0023174 18.8665
592 4.71672 1.57102 20.4364
593 6.28824 -0.0023174 18.8656
594 7.86108 1.57038 20.4376
595 9.43285 -0.0023174 18.8656
596 11.0052 1.57033 20.4377
597 12.5772 -0.0023174 18.8656
598 14.1492 1.57033 20.4377
599 15.7216 -0.0023174 18.8656
600 17.2933 1.57038 20.4376
601 18.8662 -0.0023174 18.8656
602 20.4377 1.57102 20.4364
603 22.0108 3.14496 18.8622
604 1.57012 4.72108 20.4341
605 3.14362 3.14496 18.8622
606 4.72056 4.7216 20.4324
607 6.28862 3.1434 18.8646
608 7.86249 4.71701 20.4364
609 9.43298 3.14287 18.8654
610 11.0055 4.71581 20.4375
611 12.5772 3.14279 18.8655
612 14.1489 4.71581 20.4375
613 15.7214 3.14287 18.8654
614 17.2919 4.71701 20.4364
615 18.8658 3.1434 18.8646
616 20.4339 4.7216 20.4324
617 22.0111 6.28984 18.8636
618 1.57012 7.8628 20.4363
619 3.14336 6.28984 18.8636
620 4.71667 7.86267 20.4363
621 6.28967 6.28979 18.8635
622 7.86113 7.86105 20.4373
623 9.43343 6.28837 18.8649
624 11.0052 7.8605 20.4377
625 12.5772 6.28801 18.8653
626 14.1492 7.8605 20.4377
627 15.721 6.28837 18.8649
628 17.2933 7.86105 20.4373
629 18.8648 6.28979 18.8635
630 20.4378 7.86267 20.4363
631 22.0114 9.43322 18.8645
632 1.57012 11.0048 20.437
633 3.14301 9.43322 18.8645
634 4.71593 11.0048 20.4371
635 6.28854 9.43315 18.8646
636 7.86078 11.0048 20.4375
637 9.433 9.43271 18.8652
638 11.0051 11.0048 20.4378
639 12.5772 9.43259 18.8654
640 14.1493 11.0048 20.4378
641 15.7214 9.43271 18.8652
642 17.2937 11.0048 20.4375
643 18.8659 9.43315 18.8646
644 20.4385 11.0048 20.4371
645 22.0114 12.5763 18.8645
646 1.57012 14.1467 20.4363
647 3.14301 12.5763 18.8645
648 4.71667 14.1469 20.4363
649 6.28854 12.5764 18.8646
650 7.86113 14.1485 20.4373
651 9.433 12.5768 18.8652
652 11.0052 14.149 20.4377
653 12.5772 12.577 18.8654
654 14.1492 14.149 20.4377
655 15.7214 12.5768 18.8652
656 17.2933 14.1485 20.4373
657 18.8659 12.5764 18.8646
658 20.4378 14.1469 20.4363
659 22.0111 15.7197 18.8636
660 1.57012 17.2885 20.4341
661 3.14336 15.7197 18.8636
662 4.72056 17.2879 20.4324
663 6.28967 15.7198 18.8635
664 7.86249 17.2925 20.4364
665 9.43343 15.7212 18.8649
666 11.0055 17.2937 20.4375
667 12.5772 15.7215 18.8653
668 14.1489 17.2937 20.4375
669 15.721 15.7212 18.8649
670 17.2919 17.2925 20.4364
671 18.8648 15.7198 18.8635
672 20.4339 17.2879 20.4324
673 22.0108 18.8646 18.8622
674 1.57012 20.4354 20.4357
675 3.14362 18.8646 18.8622
676 4.71672 20.4385 20.4364
677 6.28862 18.8661 18.8646
678 7.86108 20.4392 20.4376
679 9.43298 18.8667 18.8654
680 11.0052 20.4392 20.4377
681 12.5772 18.8668 18.8655
682 14.1492 20.4392 20.4377
683 15.7214 18.8667 18.8654
684 17.2933 20.4392 20.4376
685 18.8658 18.8661 18.8646
686 20.4377 20.4385 20.4364
687 1.57012 -0.0023174 2.35738
