LAMMPS data file via write_data, version 2 Aug 2023, timestep = 221, units = metal

687 atoms
3 atom types

-0.0023174010900032355 22.011864401090012 xlo xhi
-0.0023174006717839057 22.01186440067177 ylo yhi
-0.0009994080980767583 22.01054640809807 zlo zhi

Masses

1 183.84
2 1.008
3 4.0026

Atoms # atomic

1 1 22.00904714020099 -0.0023173975461921797 0.0004722018913602142 -1 0 0
2 1 1.5701241581510705 1.6881982321882967 1.5312405724844296 0 0 0
3 1 3.1453829804162603 -0.002317397546197706 0.00047220073931126844 0 0 0
4 1 4.7235940464023445 1.5813368385504467 1.565052399474412 0 0 0
5 1 6.289405787476705 -0.00231739835054128 -0.0004209602401847508 0 0 0
6 1 7.864530349732363 1.5720535214405007 1.5701681060244446 0 0 0
7 1 9.433731538281489 -0.002317399046525373 22.010045883485194 0 0 -1
8 1 11.006124585284732 1.5707074731532429 1.5708393216773893 0 0 0
9 1 12.577215059748326 -0.0023173992199415783 22.01000385209284 0 0 -1
10 1 14.148305534701104 1.57070747313202 1.5708393212825018 0 0 0
11 1 15.720698581545095 -0.0023173990465292908 22.010045883304556 0 0 -1
12 1 17.28989977016428 1.5720535210202056 1.5701681053484866 0 0 0
13 1 18.865024332333824 -0.002317398350500223 -0.00042096095389598743 0 0 0
14 1 20.43083607509612 1.5813368380825952 1.565052398291546 0 0 0
15 1 21.99739317486476 3.1621704758437987 21.994394699453487 -1 0 -1
16 1 1.5701241586489334 4.732644024646212 1.5693604574283224 0 0 0
17 1 3.1570369450721705 3.1621704762374057 21.994394699203752 0 0 -1
18 1 4.718185702617196 4.720958334013555 1.570804523400737 0 0 0
19 1 6.293124898370305 3.146929877601397 22.00740184085344 0 0 -1
20 1 7.8623657612101745 4.717238637926969 1.570826816504416 0 0 0
21 1 9.434423654984903 3.1438064596551514 22.009585031510852 0 0 -1
22 1 11.00561632166498 4.716067215135554 1.5709677117961514 0 0 0
23 1 12.577215059618272 3.143268816286862 22.009913226168308 0 0 -1
24 1 14.148813797708552 4.716067214994697 1.5709677114967304 0 0 0
25 1 15.720006464329124 3.143806459503711 22.009585031065843 0 0 -1
26 1 17.292064358201422 4.717238637892336 1.5708268159882022 0 0 0
27 1 18.861305221356986 3.1469298773088363 22.007401839925237 0 0 -1
28 1 20.436244417395244 4.720958333890243 1.5708045229025303 0 0 0
29 1 22.0096165907822 6.294591363002522 22.00760035664386 -1 0 -1
30 1 1.570124158269881 7.864524508508492 1.5709399084123488 0 0 0
31 1 3.1448135280172074 6.294591363208924 22.00760035660117 0 0 -1
32 1 4.716333610155987 7.8624759555573265 1.5710874327916393 0 0 0
33 1 6.28953209828526 6.290169923319292 22.009454421339367 0 0 -1
34 1 7.861126671074967 7.861151018971199 1.5710752175632243 0 0 0
35 1 9.43351133906386 6.288647530493566 22.009947491972227 0 0 -1
36 1 11.005245213588763 7.860603292117688 1.5711032237432252 0 0 0
37 1 12.577215059211065 6.288257586250128 22.01007694583236 0 0 -1
38 1 14.149184904958439 7.860603292113459 1.5711032234683464 0 0 0
39 1 15.720918779569358 6.2886475302684515 22.009947491796044 0 0 -1
40 1 17.293303447488093 7.8611510186184725 1.5710752171999145 0 0 0
41 1 18.86489802038656 6.290169922939678 22.00945442100276 0 0 -1
42 1 20.438096508583147 7.862475955333648 1.5710874324235247 0 0 0
43 1 22.011191880539215 9.43413941253453 22.00957859475587 -1 0 -1
44 1 1.5701241580125118 11.004773502049192 1.571078978950771 0 0 0
45 1 3.1432382372692134 9.434139412647198 22.00957859490378 0 0 -1
46 1 4.715870900077924 11.004773502095713 1.571128892712231 0 0 0
47 1 6.288545317801624 9.433246323994114 22.00995598102842 0 0 -1
48 1 7.860787249898199 11.004773501632085 1.5711404427583113 0 0 0
49 1 9.433049991275231 9.432793391858905 22.01014294729896 0 0 -1
50 1 11.005125659586053 11.004773501509973 1.5711383007115676 0 0 0
51 1 12.577215059041581 9.43265628726769 22.010206605179672 0 0 -1
52 1 14.14930445872867 11.00477350150995 1.5711383005666515 0 0 0
53 1 15.721380126610448 9.432793391911021 22.010142946993838 0 0 -1
54 1 17.29364286832256 11.00477350163209 1.5711404422806825 0 0 0
55 1 18.8658848001445 9.433246323948524 22.0099559807042 0 0 -1
56 1 20.43855921800868 11.004773502095718 1.5711288923813294 0 0 0
57 1 22.011191880333016 12.575407591740353 22.00957859491942 -1 0 -1
58 1 1.5701241582698735 14.145022496159596 1.5709399092699736 0 0 0
59 1 3.1432382374754013 12.575407591627688 22.00957859506732 0 0 -1
60 1 4.716333610037943 14.147071048636828 1.571087433284079 0 0 0
61 1 6.288545317548469 12.576300679904858 22.009955981230593 0 0 -1
62 1 7.861126670822653 14.148395984762223 1.571075218044835 0 0 0
63 1 9.433049991367398 12.57675361129989 22.010142947434886 0 0 -1
64 1 11.005245213601512 14.14894371078942 1.5711032239999705 0 0 0
65 1 12.577215059041581 12.576890715757429 22.01020660541413 0 0 -1
66 1 14.149184904945685 14.14894371079367 1.571103223725116 0 0 0
67 1 15.721380126518264 12.576753611247746 22.01014294712977 0 0 -1
68 1 17.293303447740456 14.148395985114957 1.5710752176815215 0 0 0
69 1 18.86588480039766 12.57630067995046 22.009955980906344 0 0 -1
70 1 20.438096508701175 14.147071048860516 1.5710874329159665 0 0 0
71 1 22.009616590747843 15.7149556421597 22.007600357439134 -1 0 -1
72 1 1.5701241586489363 17.276902979155444 1.5693604583790528 0 0 0
73 1 3.144813528051557 15.714955641953303 22.00760035739646 0 0 -1
74 1 4.718185702273947 17.28858867057997 1.570804523302553 0 0 0
75 1 6.2895320981093334 15.719377080716109 22.009454422147886 0 0 -1
76 1 7.862365760949205 17.292308365659565 1.5708268170481368 0 0 0
77 1 9.433511338936732 15.720899472819418 22.009947492502103 0 0 -1
78 1 11.005616321548867 17.293479787761434 1.5709677121116044 0 0 0
79 1 12.577215059211053 15.721289416632782 22.01007694628312 0 0 -1
80 1 14.148813797824683 17.293479787902335 1.570967711812172 0 0 0
81 1 15.720918779696484 15.720899473044561 22.009947492325907 0 0 -1
82 1 17.29206435846242 17.292308365694208 1.5708268165319061 0 0 0
83 1 18.86489802056249 15.719377081095738 22.009454421811302 0 0 -1
84 1 20.436244417738518 17.288588670703273 1.5708045228043022 0 0 0
85 1 21.997393172236404 18.847376527534806 21.99439469873004 -1 0 -1
86 1 1.5701241581511216 20.321348780138166 1.531240578420296 0 0 0
87 1 3.1570369477005173 18.847376527141183 21.99439469848023 0 0 -1
88 1 4.723594046305676 20.428210166522057 1.5650524000680177 0 0 0
89 1 6.293124897525884 18.86261712639952 22.007401841257142 0 0 -1
90 1 7.864530349666391 20.43749348234284 1.570168106423023 0 0 0
91 1 9.434423654921835 18.86574054366117 22.009585031836547 0 0 -1
92 1 11.006124585229708 20.438839529783447 1.570839321826382 0 0 0
93 1 12.577215059618277 18.866278186549042 22.00991322652546 0 0 -1
94 1 14.148305534756137 20.43883952980466 1.5708393214315 0 0 0
95 1 15.720006464392206 18.865740543812564 22.00958503139155 0 0 -1
96 1 17.289899770230186 20.437493482763145 1.5701681057470736 0 0 0
97 1 18.86130522220134 18.862617126692008 22.00740184032889 0 0 -1
98 1 20.43083607519281 20.428210166989892 1.5650523988851293 0 0 0
99 1 21.893790120693424 -0.0023173992205083012 3.1835204361408356 -1 0 0
100 1 1.5701241603935376 1.5729413941174768 4.714288790478999 0 0 0
101 1 3.260640010410951 -0.002317399220550012 3.1835204440914024 0 0 0
102 1 4.734612058651904 1.5845954133009301 4.7319121491345655 0 0 0
103 1 6.305085565432441 -0.0023173988489579283 3.1454005507522007 0 0 0
104 1 7.86703292459699 1.5723719708728203 4.718706464173147 0 0 0
105 1 9.436966065303078 -0.002317399132130525 3.1438210959887867 0 0 0
106 1 11.006580971180597 1.5707966800781679 4.716728224883949 0 0 0
107 1 12.577215060042084 -0.0023173993243514987 3.143682024731262 0 0 0
108 1 14.147849149139784 1.5707966803543025 4.716728224665091 0 0 0
109 1 15.717464055544081 -0.0023173991321413056 3.1438210948402965 0 0 0
110 1 17.287397196911964 1.5723719709188564 4.718706463108254 0 0 0
111 1 18.849344554254188 -0.0023173988489561025 3.1454005494792674 0 0 0
112 1 20.419818060467126 1.584595416821927 4.731912150104448 0 0 0
113 1 22.0006517388083 3.151152463226413 3.1497085821528508 -1 0 0
114 1 1.5701241593164603 4.716964218537068 4.715181957194911 0 0 0
115 1 3.153778382579975 3.151152463355646 3.1497085829477816 0 0 0
116 1 4.719371430181453 4.720683338072783 4.718904974062202 0 0 0
117 1 6.293399892374441 3.145744146906845 3.143956480040536 0 0 0
118 1 7.8626114809503695 4.717090541559288 4.716852398328856 0 0 0
119 1 9.434917514487644 3.143892053817658 3.1436735710405266 0 0 0
120 1 11.005687882288235 4.716103761285249 4.716350838532231 0 0 0
121 1 12.577215060104393 3.1434293433037253 3.143632110669705 0 0 0
122 1 14.148742237529001 4.716103760946158 4.716350838261624 0 0 0
123 1 15.71951260572481 3.143892053659665 3.143673570381209 0 0 0
124 1 17.291818639049566 4.717090541323673 4.7168523972462095 0 0 0
125 1 18.861030228372737 3.145744146447312 3.1439564801726085 0 0 0
126 1 20.435058689772063 4.720683336941707 4.718904973521722 0 0 0
127 1 22.009935039854675 6.29208878892938 3.144592898608107 -1 0 0
128 1 1.5701241583844991 7.8612899772595 4.716260935456984 0 0 0
129 1 3.144495079807747 6.292088789017694 3.144592899141942 0 0 0
130 1 4.716248016588362 7.86198209628034 4.716721787870466 0 0 0
131 1 6.289680195327527 6.28992420356358 3.143934186609205 0 0 0
132 1 7.861089088015391 7.861069781831554 4.716359327137325 0 0 0
133 1 9.433592576708213 6.288685114083537 3.143685785286297 0 0 0
134 1 11.005234949507974 7.860608434122553 4.716163871568481 0 0 0
135 1 12.577215059483583 6.288345693003685 3.14362056001119 0 0 0
136 1 14.149195169318208 7.860608434246103 4.716163871386481 0 0 0
137 1 15.720837542887518 6.288685113745611 3.14368578464144 0 0 0
138 1 17.29334103101737 7.861069781661398 4.7163593264279 0 0 0
139 1 18.864749924071326 6.2899242032142135 3.143934185881211 0 0 0
140 1 20.43818210244883 7.861982096195967 4.716721787434412 0 0 0
141 1 22.011281088107783 9.433683026647303 3.1439216819567104 -1 0 0
142 1 1.570124158152342 11.00477350182976 4.716302967116939 0 0 0
143 1 3.143149030421113 9.433683026721027 3.1439216821561597 0 0 0
144 1 4.7157103734242405 11.004773501732604 4.716393593183329 0 0 0
145 1 6.288508772049801 9.433174763705283 3.1437932911936195 0 0 0
146 1 7.860699143327602 11.004773501428497 4.716229873197031 0 0 0
147 1 9.433044849440478 9.432803655975142 3.143657778668924 0 0 0
148 1 11.005097844804592 11.004773501301884 4.71610021339368 0 0 0
149 1 12.577215059320192 9.432684102136585 3.1436227016537055 0 0 0
150 1 14.149332273842813 11.004773501301855 4.716100213079824 0 0 0
151 1 15.721385269048705 9.432803655992373 3.1436577783251636 0 0 0
152 1 17.293730975129154 11.004773501428502 4.716229872593542 0 0 0
153 1 18.865921346425953 9.433174763549843 3.143793290771312 0 0 0
154 1 20.438719744969625 11.004773501732616 4.716393592705106 0 0 0
155 1 22.011281088123646 12.575863977377592 3.143921682251645 -1 0 0
156 1 1.5701241583844947 14.148257026646421 4.716260935592022 0 0 0
157 1 3.143149030405261 12.575863977303838 3.1439216824511047 0 0 0
158 1 4.716248016475244 14.147564907242753 4.716721788202846 0 0 0
159 1 6.288508771944646 12.576372239862307 3.1437932914172366 0 0 0
160 1 7.861089087847268 14.148477221183077 4.71635932726889 0 0 0
161 1 9.433044849437243 12.576743346975263 3.143657778874247 0 0 0
162 1 11.005234949546834 14.148938568333753 4.716163871796394 0 0 0
163 1 12.577215059320153 12.576862900640062 3.1436227017619336 0 0 0
164 1 14.14919516927934 14.148938568210228 4.716163871614374 0 0 0
165 1 15.721385269051964 12.576743346958027 3.1436577785304753 0 0 0
166 1 17.293341031185513 14.14847722135323 4.716359326559471 0 0 0
167 1 18.865921346531117 12.57637224001774 3.1437932909949304 0 0 0
168 1 20.43818210256194 14.147564907327132 4.716721787766805 0 0 0
169 1 22.00993504016843 15.717458215029009 3.144592899113051 -1 0 0
170 1 1.5701241593164916 17.292582785356963 4.7151819577278715 0 0 0
171 1 3.144495079493995 15.717458214940734 3.144592899646879 0 0 0
172 1 4.719371429962872 17.28886366575902 4.71890497475527 0 0 0
173 1 6.289680195301547 15.71962280003253 3.1439341869947515 0 0 0
174 1 7.862611480666881 17.292456461484164 4.716852398580303 0 0 0
175 1 9.433592576444816 15.72086188887863 3.1436857855576634 0 0 0
176 1 11.005687882254133 17.293443241216174 4.716350838774388 0 0 0
177 1 12.577215059483596 15.721201309702964 3.1436205603679217 0 0 0
178 1 14.148742237563102 17.29344324155526 4.716350838503781 0 0 0
179 1 15.720837543150905 15.720861889216561 3.1436857849128295 0 0 0
180 1 17.291818639333066 17.292456461719777 4.716852397497629 0 0 0
181 1 18.864749924097293 15.719622800381892 3.143934186266751 0 0 0
182 1 20.435058689990623 17.288863666890027 4.718904974214829 0 0 0
183 1 22.000651739157675 18.858394541927968 3.149708583036178 -1 0 0
184 1 1.570124160393531 20.43660561037885 4.714288789619343 0 0 0
185 1 3.153778382230585 18.858394541798752 3.1497085838311043 0 0 0
186 1 4.734612058357976 20.42495159068739 4.731912148948158 0 0 0
187 1 6.293399892282317 18.863802857137767 3.143956480412647 0 0 0
188 1 7.867032924442823 20.43717503226597 4.718706464141365 0 0 0
189 1 9.434917514320658 18.86565494927603 3.1436735713154986 0 0 0
190 1 11.006580971096431 20.438750322320388 4.716728224994408 0 0 0
191 1 12.577215060104393 18.86611765930266 3.143632110916833 0 0 0
192 1 14.147849149223958 20.438750322044246 4.716728224775558 0 0 0
193 1 15.71951260589182 18.865654949434013 3.1436735706561683 0 0 0
194 1 17.28739719706612 20.43717503221992 4.718706463076473 0 0 0
195 1 18.86103022846481 18.863802857597285 3.1439564805447446 0 0 0
196 1 20.4198180607611 20.424951587166397 4.731912149918012 0 0 0
197 1 22.007868431391287 -0.002317398597445016 6.290637446061751 -1 0 0
198 1 1.5701241588886812 1.5701659284950074 7.859825547216113 0 0 0
199 1 3.1465616909513923 -0.002317398597424855 6.290637444300286 0 0 0
200 1 4.7173986117072015 1.571178302140094 7.864084779121981 0 0 0
201 1 6.2935181491805885 -0.002317399071342965 6.29219262384972 0 0 0
202 1 7.862277435176147 1.570915694272066 7.862660002085806 0 0 0
203 1 9.435242856883708 -0.0023173995185908594 6.289966741559286 0 0 0
204 1 11.005659354609971 1.5705646200773196 7.861800810807491 0 0 0
205 1 12.577215060412696 -0.00231739967564631 6.289339280770807 0 0 0
206 1 14.148770765692024 1.570564620065298 7.861800810107724 0 0 0
207 1 15.71918726379168 -0.0023173995186042684 6.289966740952087 0 0 0
208 1 17.292152684872157 1.570915693814882 7.862660001309568 0 0 0
209 1 18.860911972313193 -0.002317399071323431 6.292192622157257 0 0 0
210 1 20.43703150943055 1.571178301738375 7.86408477739961 0 0 0
211 1 22.01097084588604 3.1442751306569194 6.289898861699002 -1 0 0
212 1 1.5701241586635886 4.715800560705421 7.860731982529437 0 0 0
213 1 3.1434592744675864 3.144275131323387 6.289898862474812 0 0 0
214 1 4.715843961545223 4.716179696181814 7.861720804163879 0 0 0
215 1 6.294046459120127 3.148116309197932 6.293876895707643 0 0 0
216 1 7.862232675636176 4.717233428099998 7.862773401174014 0 0 0
217 1 9.435113156737764 3.1442321528856434 6.289996249081767 0 0 0
218 1 11.005591946867147 4.716097234328554 7.8616672116077275 0 0 0
219 1 12.577215060294257 3.1434886720392687 6.289231537115284 0 0 0
220 1 14.148838172641678 4.716097234185155 7.861667211072236 0 0 0
221 1 15.719316963261488 3.144232152684505 6.2899962482089515 0 0 0
222 1 17.29219744380666 4.717233428145476 7.862773400443634 0 0 0
223 1 18.860383662957265 3.148116307757786 6.293876892938587 0 0 0
224 1 20.438586158421707 4.716179696070631 7.861720803385728 0 0 0
225 1 22.01161173382443 6.288640118505621 6.288692778472854 -1 0 0
226 1 1.5701241580734338 7.860404907345386 7.86071039766751 0 0 0
227 1 3.142818385725073 6.2886401186135625 6.288692778680622 0 0 0
228 1 4.715311742122434 7.860538714852512 7.8609279189257 0 0 0
229 1 6.289450409662888 6.2900525392885935 6.289865469857202 0 0 0
230 1 7.860806836795526 7.860987493506674 7.861367760559139 0 0 0
231 1 9.433490377538272 6.288686291221622 6.288988252345602 0 0 0
232 1 11.00514703261224 7.860555284335005 7.86106226841772 0 0 0
233 1 12.577215059654202 6.288334981832599 6.288761660424783 0 0 0
234 1 14.149283086115473 7.86055528432567 7.861062267956263 0 0 0
235 1 15.720939741950957 6.288686290903929 6.288988251771096 0 0 0
236 1 17.293623281761317 7.8609874931396275 7.861367759686852 0 0 0
237 1 18.864979709730857 6.290052539085446 6.289865469053395 0 0 0
238 1 20.439118376310795 7.860538714692494 7.860927918140468 0 0 0
239 1 22.01165894734813 9.432786471332893 6.288588169016507 -1 0 0
240 1 1.5701241578716032 11.004773501457436 7.860679771557214 0 0 0
241 1 3.1427711709487633 9.43278647155959 6.288588169360082 0 0 0
242 1 4.715236260001436 11.00477350137958 7.8607842751653285 0 0 0
243 1 6.2882545086612645 9.433069180539098 6.288845192568974 0 0 0
244 1 7.860451432076306 11.00477350116005 7.861001100813191 0 0 0
245 1 9.43294012619537 9.432777758420219 6.288620073358122 0 0 0
246 1 11.005028032810781 11.004773501000164 7.860864783833771 0 0 0
247 1 12.57721505934929 9.432668310158597 6.288530032980642 0 0 0
248 1 14.149402085524715 11.004773501000182 7.860864783543285 0 0 0
249 1 15.721489992271174 9.432777758372431 6.288620072759894 0 0 0
250 1 17.29397868595264 11.004773501160045 7.8610011002158515 0 0 0
251 1 18.86617560982578 9.433069180293202 6.288845191803769 0 0 0
252 1 20.439193857831413 11.004773501379578 7.860784274659978 0 0 0
253 1 22.011658947302603 12.576760531886874 6.288588169234885 -1 0 0
254 1 1.570124158073431 14.149142095749989 7.860710398083622 0 0 0
255 1 3.1427711709942727 12.57676053166018 6.288588169578465 0 0 0
256 1 4.71531174198053 14.149008288015569 7.860927919242592 0 0 0
257 1 6.2882545085278325 12.576477822320685 6.288845192697365 0 0 0
258 1 7.860806836685848 14.14855950883576 7.86136776086956 0 0 0
259 1 9.432940126209315 12.576769243991798 6.288620073456779 0 0 0
260 1 11.005147032553845 14.14899171763859 7.861062268540367 0 0 0
261 1 12.577215059349296 12.576878692113453 6.288530032991325 0 0 0
262 1 14.149283086173831 14.148991717647926 7.8610622680789115 0 0 0
263 1 15.721489992257233 12.576769244039555 6.288620072858548 0 0 0
264 1 17.293623281871035 14.148559509202816 7.861367759997269 0 0 0
265 1 18.866175609959214 12.576477822566606 6.288845191932129 0 0 0
266 1 20.439118376452715 14.149008288175583 7.860927918457365 0 0 0
267 1 22.01161173385833 15.720906885127484 6.288692778913735 -1 0 0
268 1 1.5701241586635928 17.293746442509374 7.860731982806058 0 0 0
269 1 3.1428183856911303 15.720906885019543 6.288692779121505 0 0 0
270 1 4.715843961284685 17.293367306794565 7.861720804253403 0 0 0
271 1 6.289450409370083 15.719494463769067 6.289865470149677 0 0 0
272 1 7.862232675458829 17.29231357419819 7.8627734014246995 0 0 0
273 1 9.43349037745339 15.720860711172946 6.288988252628377 0 0 0
274 1 11.005591946781696 17.293449767456956 7.861667211753911 0 0 0
275 1 12.577215059654202 15.721212020257369 6.288761660568128 0 0 0
276 1 14.14883817272713 17.293449767600322 7.8616672112184 0 0 0
277 1 15.720939742035826 15.720860711490658 6.288988252053869 0 0 0
278 1 17.29219744398402 17.292313574152708 7.862773400694324 0 0 0
279 1 18.864979710023686 15.719494463972218 6.289865469345856 0 0 0
280 1 20.438586158682245 17.293367306905747 7.861720803475239 0 0 0
281 1 22.010970845662552 18.86527187253221 6.2898988621425795 -1 0 0
282 1 1.5701241588886643 20.439381074794955 7.859825547908171 0 0 0
283 1 3.1434592746910983 18.86527187186573 6.289898862918383 0 0 0
284 1 4.717398611584147 20.438368700762826 7.864084779367794 0 0 0
285 1 6.2940464589125495 18.861430693659084 6.29387689602184 0 0 0
286 1 7.862277435074077 20.43863130803681 7.862660002234123 0 0 0
287 1 9.435113156718987 18.865314849405888 6.289996249284257 0 0 0
288 1 11.005659354586303 20.43898238163177 7.861800810868423 0 0 0
289 1 12.57721506029425 18.86605832995172 6.289231537240415 0 0 0
290 1 14.148770765715708 20.43898238164382 7.861800810168677 0 0 0
291 1 15.719316963280267 18.86531484960705 6.289996248411429 0 0 0
292 1 17.292152684974244 20.43863130849399 7.862660001457845 0 0 0
293 1 18.860383663164793 18.861430695099198 6.2938768932528175 0 0 0
294 1 20.437031509553606 20.43836870116455 7.864084777645442 0 0 0
295 1 22.011632119689796 -0.002317399329738034 9.43321807972498 -1 0 0
296 1 1.570124158663843 1.57016730209465 11.004800557875225 0 0 0
297 1 3.1427980006817253 -0.002317399329728995 9.433218081115003 0 0 0
298 1 4.715329374925509 1.5702263594599815 11.005781681883013 0 0 0
299 1 6.288920308807533 -0.0023173995401967727 9.434601981463299 0 0 0
300 1 7.860581048215081 1.570345203122416 11.006018550575927 0 0 0
301 1 9.433329252189893 -0.0023173999078132113 9.434040979635919 0 0 0
302 1 11.005076737860923 1.5702933400525512 11.005826393969606 0 0 0
303 1 12.577215059776501 -0.0023174000552224072 9.433831307837956 0 0 0
304 1 14.149353381352611 1.5702933401615167 11.005826393851693 0 0 0
305 1 15.721100868353004 -0.002317399907841633 9.43404097838651 0 0 0
306 1 17.29384907127626 1.5703452029362484 11.00601854938307 0 0 0
307 1 18.865509811037224 -0.002317399540195598 9.434601980339817 0 0 0
308 1 20.439100744385158 1.5702263595816603 11.005781681172474 0 0 0
309 1 22.01181794558632 3.1428747674114668 9.433125659635955 -1 0 0
310 1 1.570124158158178 4.715273011877834 11.004835536479067 0 0 0
311 1 3.1426121742399484 3.1428747675091997 9.433125660270326 0 0 0
312 1 4.715152762303427 4.7153126373115555 11.00520171366584 0 0 0
313 1 6.288710639900894 3.1435384555006927 9.43468333071689 0 0 0
314 1 7.860496756751389 4.715613101863724 11.005864479458689 0 0 0
315 1 9.433265866796024 3.143213346257602 9.43402004445569 0 0 0
316 1 11.00505125653489 4.715451631690959 11.005704234669093 0 0 0
317 1 12.577215059775787 3.1430685871219506 9.433781277016111 0 0 0
318 1 14.149378862252409 4.7154516314627735 11.00570423435982 0 0 0
319 1 15.721164252953589 3.1432133460829843 9.434020043550174 0 0 0
320 1 17.293933361938027 4.715613101518669 11.005864478363536 0 0 0
321 1 18.865719479660026 3.143538455361021 9.434683329945232 0 0 0
322 1 20.43927735607762 4.715312636964504 11.00520171297653 0 0 0
323 1 22.01178665555279 6.287854475640032 9.432861311076888 -1 0 0
324 1 1.57012415749174 7.860100857277092 11.004730931224259 0 0 0
325 1 3.1426434629880062 6.287854475871048 9.43286131164949 0 0 0
326 1 4.715106254485633 7.860142772273176 11.004877027133533 0 0 0
327 1 6.287954214098274 6.28818993888731 9.433442712596227 0 0 0
328 1 7.860181961277335 7.860298257507246 11.005221542275724 0 0 0
329 1 9.433117707648652 6.288413951503513 9.433765113237099 0 0 0
330 1 11.004990875811172 7.860327620242848 11.005426599949379 0 0 0
331 1 12.577215059225438 6.288191029266819 9.433566135208414 0 0 0
332 1 14.149439242197401 7.860327620213868 11.005426599717016 0 0 0
333 1 15.721312411167915 6.2884139512353014 9.433765112454308 0 0 0
334 1 17.294248156494493 7.860298257375596 11.005221541640017 0 0 0
335 1 18.86647590438458 6.288189938373761 9.43344271152797 0 0 0
336 1 20.43932386289747 7.860142772204246 11.004877026652942 0 0 0
337 1 22.01180222838581 9.432508090764184 9.43276505395562 -1 0 0
338 1 1.5701241572315927 11.004773501351425 11.00470572486502 0 0 0
339 1 3.142627889050935 9.43250809081444 9.432765054219855 0 0 0
340 1 4.71509743587414 11.004773501306296 11.004798789992428 0 0 0
341 1 6.287687853467576 9.432594510444561 9.432980745252399 0 0 0
342 1 7.860090155359134 11.00477350108801 11.005019124818652 0 0 0
343 1 9.432746513542334 9.43269886128461 9.433211715223317 0 0 0
344 1 11.004947357127172 11.004773500956821 11.005201619725048 0 0 0
345 1 12.577215059071436 9.432612977072875 9.433149883478158 0 0 0
346 1 14.149482760527837 11.00477350095679 11.005201619313857 0 0 0
347 1 15.72168360436497 9.432698861359897 9.433211714660544 0 0 0
348 1 17.29433996200417 11.004773501088016 11.005019123991362 0 0 0
349 1 18.866742264249822 9.432594510452164 9.432980744567681 0 0 0
350 1 20.439332681017458 11.00477350130627 11.004798789355846 0 0 0
351 1 22.01180222837962 12.577038911997354 9.432765054176961 -1 0 0
352 1 1.5701241574917308 14.149446145561308 11.004730931639159 0 0 0
353 1 3.1426278890571204 12.57703891194708 9.432765054441221 0 0 0
354 1 4.71510625436876 14.149404230336263 11.004877027560498 0 0 0
355 1 6.287687853419828 12.57695249199922 9.432980745450127 0 0 0
356 1 7.860181961113042 14.14924874462871 11.005221542605037 0 0 0
357 1 9.432746513470859 12.576848140759775 9.433211715338286 0 0 0
358 1 11.004990875754894 14.149219381430465 11.005426600165755 0 0 0
359 1 12.577215059071424 12.576934024708795 9.433149883564658 0 0 0
360 1 14.149439242253688 14.149219381459485 11.005426599933399 0 0 0
361 1 15.721683604436473 12.576848140684469 9.433211714775517 0 0 0
362 1 17.29424815665875 14.149248744760358 11.005221541969323 0 0 0
363 1 18.866742264297546 12.5769524919916 9.432980744765404 0 0 0
364 1 20.43932386301438 14.149404230405194 11.004877027079896 0 0 0
365 1 22.01178665563993 15.72169252709645 9.432861311570923 -1 0 0
366 1 1.5701241581581764 17.294273990818677 11.004835537031685 0 0 0
367 1 3.142643462900849 15.721692526865455 9.43286131214352 0 0 0
368 1 4.715152762192737 17.294234365164133 11.005201714151719 0 0 0
369 1 6.28795421397862 15.721357063466938 9.433442712999101 0 0 0
370 1 7.8604967565192725 17.29393390003791 11.00586447987479 0 0 0
371 1 9.433117707503602 15.721133050362997 9.433765113438037 0 0 0
372 1 11.005051256475012 17.294095369777953 11.00570423494811 0 0 0
373 1 12.577215059225454 15.721355972393955 9.433566135358916 0 0 0
374 1 14.14937886231228 17.29409537000611 11.005704234638841 0 0 0
375 1 15.72131241131295 15.72113305063121 9.433765112655271 0 0 0
376 1 17.29393336217016 17.29393390038295 11.005864478779657 0 0 0
377 1 18.866475904504227 15.721357063980507 9.433442711930823 0 0 0
378 1 20.439277356188295 17.294234365511183 11.005201713462403 0 0 0
379 1 22.011817945691586 18.866672235481456 9.433125659899465 -1 0 0
380 1 1.5701241586638244 20.439379700699472 11.00480055797861 0 0 0
381 1 3.1426121741347086 18.866672235383703 9.433125660533827 0 0 0
382 1 4.715329374898986 20.4393206429935 11.005781682006365 0 0 0
383 1 6.288710639788104 18.866008546855802 9.434683331093698 0 0 0
384 1 7.860581048108661 20.439201798674134 11.006018550682876 0 0 0
385 1 9.433265866676278 18.866333655402023 9.434020044621363 0 0 0
386 1 11.005076737799007 20.439253661190573 11.005826394093496 0 0 0
387 1 12.577215059775773 18.866478414255816 9.433781277160167 0 0 0
388 1 14.149353381414555 20.43925366108161 11.005826393975546 0 0 0
389 1 15.721164253073331 18.866333655576668 9.434020043715861 0 0 0
390 1 17.293849071382674 20.439201798860292 11.006018549490042 0 0 0
391 1 18.865719479772817 18.866008546995456 9.434683330322041 0 0 0
392 1 20.439100744411682 20.439320642871806 11.005781681295826 0 0 0
393 1 -0.002307496549779131 -0.002317399242935241 12.57723116537553 0 0 0
394 1 1.5701241581215595 1.5701142560603105 14.149075653958379 0 0 0
395 1 3.142555813164426 -0.0023173992429330226 12.577231165779432 0 0 0
396 1 4.715096141986506 1.5701257175567491 14.149344655186212 0 0 0
397 1 6.287770658920979 -0.0023173995534448155 12.577730442633115 0 0 0
398 1 7.86014261025592 1.5701790919385241 14.149582472812567 0 0 0
399 1 9.432645798568402 -0.0023173999689731772 12.57777389675757 0 0 0
400 1 11.004891630400692 1.5701797788493372 14.149637464326501 0 0 0
401 1 12.577215059669754 -0.00231740011104975 12.577738956363847 0 0 0
402 1 14.149538488095377 1.5701797787845777 14.149637463796225 0 0 0
403 1 15.721784320135574 -0.002317399968962519 12.577773896082443 0 0 0
404 1 17.294287508122775 1.5701790918904732 14.149582472113241 0 0 0
405 1 18.866659460000765 -0.0023173995534471296 12.577730441566205 0 0 0
406 1 20.439333976296965 1.570125717469011 14.149344654385724 0 0 0
407 1 22.01186284384249 3.142654584481656 12.576962164554176 -1 0 0
408 1 1.570124157705784 4.715329101078544 14.14857637844343 0 0 0
409 1 3.1425672744158373 3.1426545846445557 12.576962165084351 0 0 0
410 1 4.7151841023767735 4.715273945697034 14.148740594249213 0 0 0
411 1 6.287715503298245 3.142742545659396 12.577566226688813 0 0 0
412 1 7.860184065413643 4.715219312964529 14.149283565143243 0 0 0
413 1 9.432638802292423 3.142768271760319 12.577693075263522 0 0 0
414 1 11.004912082179189 4.715167177662206 14.149468255401878 0 0 0
415 1 12.57721505941313 3.142738073791249 12.577666596964686 0 0 0
416 1 14.149518035867155 4.715167177568083 14.149468255080741 0 0 0
417 1 15.721791316129035 3.142768271601677 12.577693074632686 0 0 0
418 1 17.29424605230676 4.71521931281045 14.14928356460232 0 0 0
419 1 18.86671461529934 3.1427425453460835 12.577566225589589 0 0 0
420 1 20.439246015168848 4.715273945601413 14.148740593736992 0 0 0
421 1 22.011809468500438 6.28770105263615 12.576724347067824 -1 0 0
422 1 1.5701241571495461 7.860204240641357 14.148532923635228 0 0 0
423 1 3.1426206488231694 6.287701052683032 12.576724347406586 0 0 0
424 1 4.715209828372371 7.860197244518139 14.148613745289525 0 0 0
425 1 6.287660869649621 6.287742508160176 12.577023255056782 0 0 0
426 1 7.860238825955281 7.860186894260169 14.148864508860367 0 0 0
427 1 9.43262845161815 6.287797269597106 12.577442311171993 0 0 0
428 1 11.00494931020199 7.86010305139849 14.149209864789203 0 0 0
429 1 12.577215058993898 6.2877282722873415 12.577479819792336 0 0 0
430 1 14.149480807155602 7.860103051249149 14.149209864504963 0 0 0
431 1 15.721801666104309 6.287797269468907 12.577442310718713 0 0 0
432 1 17.29419129116271 7.860186893943365 14.148864508255889 0 0 0
433 1 18.86676924797821 6.287742507992564 12.577023254427619 0 0 0
434 1 20.43922028825151 7.860197244369488 14.148613744807527 0 0 0
435 1 22.01180878096059 9.432450072576794 12.57666935536663 -1 0 0
436 1 1.570124156959306 11.004773501771059 14.14856786401512 0 0 0
437 1 3.1426213356014605 9.43245007265663 12.576669355656804 0 0 0
438 1 4.715179630270997 11.004773501579356 14.148640223064325 0 0 0
439 1 6.287608734127792 9.432470524621232 12.576838564443278 0 0 0