ITEM: TIMESTEP
1633
ITEM: NUMBER OF ATOMS
687
ITEM: BOX BOUNDS pp pp pp
-9.9851683179410177e-04 2.2010545516831826e+01
-2.3176109708183583e-03 2.2011864610970814e+01
-2.3190910353142993e-03 2.2011866091035351e+01
ITEM: ATOMS id x y z
1 21.9943 21.9914 21.9966
2 1.53108 1.45137 1.56931
3 3.1495 22.0024 21.9999
4 4.71409 1.56642 1.5693
5 6.28971 22.0092 22.0102
6 7.85964 1.56914 1.5693
7 9.43293 22.0106 22.011
8 11.0046 1.56914 1.56929
9 12.5768 22.0108 22.011
10 14.1489 1.56919 1.56928
11 15.7204 22.0106 22.0109
12 17.2929 1.56896 1.56929
13 18.8621 22.0085 22.01
14 20.4355 1.56521 1.56929
15 0.000313688 3.14165 22.0082
16 1.53107 4.83196 1.5693
17 3.18338 3.14165 21.8927
18 4.7141 4.71686 1.56931
19 6.29046 3.14163 22.007
20 7.85965 4.71412 1.5693
21 9.43304 3.14163 22.0108
22 11.0046 4.71411 1.56929
23 12.5771 3.14162 22.011
24 14.1489 4.71406 1.56928
25 15.7214 3.14163 22.011
26 17.2929 4.71431 1.56928
27 18.8663 3.14164 22.011
28 20.4355 4.71807 1.5693
29 21.9943 6.30611 21.9966
30 1.56917 7.87663 1.5693
31 3.14951 6.29508 21.9998
32 4.71499 7.8609 1.5693
33 6.28972 6.28823 22.0102
34 7.86053 7.85974 1.5693
35 9.43294 6.28682 22.011
36 11.0046 7.85921 1.56929
37 12.5768 6.28659 22.011
38 14.1484 7.85927 1.56929
39 15.7204 6.28683 22.0109
40 17.2915 7.86042 1.56929
41 18.8621 6.28891 22.01
42 20.4339 7.86502 1.56929
43 22.0074 9.43853 22.0088
44 1.57071 11.0085 1.56929
45 3.1444 9.43603 22.0091
46 4.71604 11.0052 1.56929
47 6.28849 9.43258 22.0108
48 7.86048 11.0043 1.56929
49 9.43265 9.4318 22.0109
50 11.0045 11.004 1.56929
51 12.5765 9.43163 22.011
52 14.1483 11.0041 1.56929
53 15.7201 9.43208 22.0108
54 17.292 11.0048 1.56929
55 18.8634 9.43378 22.0102
56 20.4361 11.0067 1.56929
57 22.0093 12.5781 22.0104
58 1.57084 14.1487 1.56929
59 3.14369 12.5776 22.0104
60 4.71606 14.1487 1.56928
61 6.28835 12.5767 22.0108
62 7.86042 14.1487 1.56928
63 9.43252 12.5764 22.011
64 11.0045 14.1487 1.56928
65 12.5764 12.5764 22.011
66 14.1483 14.1487 1.56929
67 15.7202 12.5766 22.0109
68 17.2922 14.1487 1.56929
69 18.8643 12.5772 22.0106
70 20.4367 14.1487 1.56929
71 22.0093 15.7193 22.0104
72 1.57071 17.2889 1.56929
73 3.14369 15.7198 22.0104
74 4.71603 17.2922 1.56929
75 6.28835 15.7207 22.0108
76 7.86047 17.2931 1.56928
77 9.43252 15.721 22.011
78 11.0045 17.2934 1.56929
79 12.5764 15.721 22.011
80 14.1483 17.2933 1.56929
81 15.7202 15.7209 22.0109
82 17.292 17.2926 1.56929
83 18.8643 15.7203 22.0106
84 20.4361 17.2907 1.56929
85 22.0074 18.8589 22.0088
86 1.56917 20.4208 1.5693
87 3.14439 18.8614 22.0091
88 4.71498 20.4365 1.5693
89 6.28847 18.8649 22.0108
90 7.86052 20.4377 1.56929
91 9.43265 18.8656 22.0109
92 11.0046 20.4382 1.56929
93 12.5765 18.8658 22.011
94 14.1484 20.4382 1.56929
95 15.7201 18.8654 22.0108
96 17.2915 20.437 1.56929
97 18.8635 18.8637 22.0102
98 20.4339 20.4324 1.56929
99 21.9943 21.9913 3.15618
100 1.56488 1.55796 4.7228
101 3.1495 22.0024 3.15293
102 4.7318 1.55467 4.73383
103 6.28971 22.0092 3.14263
104 7.86394 1.56813 4.71657
105 9.43294 22.0106 3.14178
106 11.0056 1.56908 4.71449
107 12.5768 22.0108 3.14172
108 14.1492 1.56919 4.71425
109 15.7204 22.0106 3.14182
110 17.293 1.56914 4.71447
111 18.8621 22.0085 3.14278
112 20.4363 1.56829 4.71589
113 0.000304444 3.14165 3.14459
114 1.56488 4.72531 4.7228
115 3.18339 3.14164 3.26014
116 4.73181 4.7286 4.73383
117 6.29047 3.14163 3.14575
118 7.86395 4.71513 4.71658
119 9.43305 3.14163 3.14197
120 11.0056 4.71416 4.71449
121 12.5771 3.14162 3.14171
122 14.1492 4.71407 4.71425
123 15.7214 3.14163 3.14177
124 17.293 4.71413 4.71448
125 18.8663 3.14164 3.14179
126 20.4362 4.71498 4.7159
127 21.9942 6.30612 3.1562
128 1.57063 7.86491 4.71737
129 3.14951 6.29508 3.15294
130 4.71872 7.86464 4.71854
131 6.28973 6.28823 3.14263
132 7.86155 7.86012 4.71502
133 9.43295 6.28682 3.14179
134 11.005 7.85925 4.71432
135 12.5768 6.28659 3.14173
136 14.1486 7.85921 4.71435
137 15.7204 6.28683 3.14182
138 17.2914 7.86022 4.71514
139 18.8621 6.28891 3.14278
140 20.4323 7.86555 4.71973
141 22.0074 9.43853 3.14399
142 1.57087 11.0064 4.71551
143 3.1444 9.43603 3.14368
144 4.71651 11.0059 4.71542
145 6.28849 9.43258 3.14199
146 7.86072 11.0045 4.71448
147 9.43266 9.4318 3.14182
148 11.0047 11.0041 4.71427
149 12.5765 9.43164 3.14178
150 14.1484 11.0041 4.71437
151 15.7201 9.43208 3.14195
152 17.2921 11.0048 4.71482
153 18.8634 9.43378 3.14253
154 20.4361 11.0066 4.71584
155 22.0093 12.5781 3.14241
156 1.5709 14.1487 4.71504
157 3.14369 12.5776 3.14231
158 4.71616 14.1487 4.71487
159 6.28835 12.5767 3.14194
160 7.86055 14.1487 4.7144
161 9.43253 12.5765 3.14179
162 11.0046 14.1487 4.71425
163 12.5764 12.5764 3.14178
164 14.1484 14.1487 4.71434
165 15.7202 12.5766 3.1419
166 17.2923 14.1487 4.71467
167 18.8643 12.5772 3.14217
168 20.4368 14.1487 4.7151
169 22.0093 15.7193 3.1424
170 1.57087 17.291 4.7155
171 3.14369 15.7198 3.14231
172 4.71651 17.2915 4.71541
173 6.28835 15.7207 3.14193
174 7.86071 17.2929 4.71447
175 9.43252 15.721 3.14178
176 11.0047 17.2934 4.71426
177 12.5764 15.721 3.14178
178 14.1484 17.2933 4.71437
179 15.7202 15.7209 3.1419
180 17.2921 17.2927 4.71481
181 18.8643 15.7203 3.14217
182 20.4361 17.2908 4.71583
183 22.0074 18.8589 3.14399
184 1.57063 20.4325 4.71736
185 3.1444 18.8614 3.14368
186 4.71871 20.4328 4.71854
187 6.28848 18.8648 3.14198
188 7.86154 20.4373 4.71501
189 9.43265 18.8656 3.14181
190 11.005 20.4382 4.71431
191 12.5765 18.8658 3.14178
192 14.1486 20.4382 4.71434
193 15.7201 18.8654 3.14194
194 17.2915 20.4372 4.71513
195 18.8635 18.8637 3.14252
196 20.4323 20.4319 4.71972
197 22.0073 22.0065 6.2923
198 1.57005 1.56724 7.8637
199 3.14381 22.0077 6.29256
200 4.71861 1.56693 7.8662
201 6.29375 22.0054 6.29323
202 7.86256 1.56839 7.86144
203 9.43455 22.0099 6.28788
204 11.0059 1.56896 7.85974
205 12.5774 22.0107 6.28687
206 14.1495 1.56913 7.85929
207 15.721 22.0108 6.2869
208 17.2933 1.5691 7.85945
209 18.8644 22.0101 6.28778
210 20.4375 1.56893 7.86025
211 -0.000556198 3.14163 6.28859
212 1.57006 4.71601 7.8637
213 3.14529 3.14163 6.30425
214 4.71861 4.71633 7.8662
215 6.29208 3.14163 6.29269
216 7.86256 4.71487 7.86145
217 9.43448 3.14162 6.28808
218 11.0059 4.71428 7.85975
219 12.5776 3.14162 6.28693
220 14.1495 4.71412 7.8593
221 15.7213 3.14163 6.28687
222 17.2933 4.71416 7.85946
223 18.8655 3.14163 6.2874
224 20.4375 4.71433 7.86026
225 22.0073 6.29089 6.29231
226 1.57069 7.86119 7.86154
227 3.14382 6.28971 6.29257
228 4.71672 7.86105 7.86179
229 6.29376 6.29209 6.29323
230 7.86265 7.86118 7.86141
231 9.43456 6.28748 6.28789
232 11.0057 7.85956 7.85966
233 12.5774 6.28668 6.28688
234 14.1491 7.85915 7.85935
235 15.721 6.28665 6.28691
236 17.2927 7.85946 7.8598
237 18.8644 6.28736 6.28779
238 20.4363 7.86097 7.86167
239 22.0093 9.43412 6.28871
240 1.57089 11.0051 7.86031
241 3.14376 9.43388 6.28885
242 4.71619 11.005 7.86026
243 6.28969 9.434 6.28863
244 7.8612 11.0049 7.85998
245 9.43327 9.43214 6.28712
246 11.0051 11.0042 7.85934
247 12.5769 9.43168 6.28682
248 14.1487 11.0041 7.85939
249 15.7203 9.43199 6.28722
250 17.2924 11.0046 7.86002
251 18.8633 9.43373 6.28884
252 20.4371 11.005 7.8603
253 22.0097 12.5772 6.28772
254 1.57094 14.1487 7.85996
255 3.14358 12.5771 6.28768
256 4.71604 14.1487 7.85986
257 6.28864 12.577 6.28742
258 7.86081 14.1487 7.85961
259 9.43277 12.5765 6.28685
260 11.0048 14.1487 7.85924
261 12.5766 12.5764 6.28676
262 14.1486 14.1487 7.85932
263 15.7204 12.5766 6.28705
264 17.2925 14.1487 7.85979
265 18.8644 12.5771 6.28771
266 20.4373 14.1487 7.85994
267 22.0097 15.7202 6.28771
268 1.57089 17.2923 7.8603
269 3.14359 15.7203 6.28768
270 4.71619 17.2924 7.86026
271 6.28864 15.7204 6.28742
272 7.8612 17.2925 7.85997
273 9.43277 15.7209 6.28685
274 11.005 17.2932 7.85934
275 12.5766 15.721 6.28676
276 14.1487 17.2933 7.85939
277 15.7204 15.7209 6.28705
278 17.2924 17.2928 7.86001
279 18.8644 15.7203 6.2877
280 20.4371 17.2924 7.86029
281 22.0093 18.8633 6.2887
282 1.57068 20.4362 7.86153
283 3.14376 18.8636 6.28885
284 4.71672 20.4364 7.86178
285 6.28969 18.8634 6.28862
286 7.86264 20.4363 7.86139
287 9.43327 18.8653 6.28711
288 11.0057 20.4379 7.85965
289 12.5768 18.8658 6.28681
290 14.1491 20.4383 7.85934
291 15.7203 18.8654 6.28721
292 17.2927 20.438 7.85979
293 18.8634 18.8637 6.28882
294 20.4363 20.4365 7.86165
295 22.0095 22.0097 9.43358
296 1.57076 1.56859 11.0053
297 3.14357 22.0096 9.43408
298 4.71665 1.56851 11.0057
299 6.2899 22.0093 9.43427
300 7.86172 1.56875 11.0048
301 9.43392 22.0103 9.43243
302 11.0058 1.56901 11.0042
303 12.5776 22.0107 9.4318
304 14.1496 1.56913 11.0041
305 15.7213 22.0108 9.43174
306 17.2935 1.56912 11.0041
307 18.8653 22.0106 9.43214
308 20.4376 1.56898 11.0044
309 22.01 3.14163 9.43289
310 1.57076 4.71465 11.0053
311 3.14374 3.14162 9.43612
312 4.71665 4.71474 11.0057
313 6.28989 3.14163 9.4344
314 7.86173 4.71451 11.0048
315 9.43397 3.14163 9.4325
316 11.0058 4.71424 11.0042
317 12.5777 3.14162 9.43181
318 14.1496 4.71411 11.0041
319 15.7215 3.14162 9.4317
320 17.2935 4.71413 11.0041
321 18.8655 3.14163 9.432
322 20.4376 4.71427 11.0044
323 22.0095 6.28776 9.43358
324 1.57086 7.86002 11.0048
325 3.14358 6.28785 9.43408
326 4.71625 7.86006 11.0049
327 6.2899 6.28818 9.43428
328 7.86157 7.86004 11.0048
329 9.43393 6.28716 9.43244
330 11.0056 7.85939 11.0042
331 12.5776 6.2867 9.43181
332 14.1494 7.8591 11.0041
333 15.7213 6.28661 9.43175
334 17.2932 7.85919 11.0042
335 18.8653 6.28682 9.43215
336 20.4373 7.85976 11.0047
337 22.0098 9.43261 9.43269
338 1.57095 11.0046 11.0044
339 3.14355 9.43265 9.43277
340 4.71603 11.0046 11.0044
341 6.28886 9.43264 9.43267
342 7.86093 11.0045 11.0043
343 9.43364 9.43236 9.43229
344 11.0053 11.0043 11.0042
345 12.5773 9.43173 9.43179
346 14.1491 11.004 11.0041
347 15.7209 9.43168 9.43191
348 17.2929 11.0042 11.0043
349 18.8648 9.43231 9.4326
350 20.4375 11.0045 11.0044
351 22.01 12.5767 9.43223
352 1.57097 14.1487 11.0043
353 3.14349 12.5768 9.43222
354 4.71595 14.1487 11.0043
355 6.28846 12.5767 9.43211
356 7.86072 14.1487 11.0042
357 9.43305 12.5766 9.43191
358 11.005 14.1487 11.0041
359 12.5769 12.5765 9.4317
360 14.1489 14.1487 11.0041
361 15.7207 12.5765 9.43192
362 17.293 14.1487 11.0042
363 18.8651 12.5767 9.43217
364 20.4376 14.1487 11.0043
365 22.01 15.7207 9.43222
366 1.57095 17.2929 11.0044
367 3.14349 15.7207 9.43222
368 4.71602 17.2929 11.0044
369 6.28846 15.7207 9.43211
370 7.86093 17.2929 11.0043
371 9.43305 15.7208 9.43191
372 11.0053 17.2932 11.0042
373 12.5769 15.721 9.4317
374 14.1491 17.2934 11.0041
375 15.7207 15.7209 9.43192
376 17.2929 17.2932 11.0043
377 18.865 15.7208 9.43216
378 20.4375 17.293 11.0044
379 22.0098 18.8648 9.43268
380 1.57085 20.4374 11.0048
381 3.14355 18.8648 9.43276
382 4.71624 20.4374 11.0048
383 6.28885 18.8648 9.43266
384 7.86156 20.4374 11.0048
385 9.43363 18.8651 9.43228
386 11.0056 20.4381 11.0042
387 12.5773 18.8657 9.43179
388 14.1494 20.4383 11.0041
389 15.7209 18.8658 9.4319
390 17.2932 20.4382 11.0042
391 18.8648 18.8651 9.43259
392 20.4373 20.4377 11.0047
393 22.0098 22.0102 12.5764
394 1.57076 1.5686 14.1475
395 3.14354 22.0101 12.5764
396 4.71664 1.56851 14.147
397 6.28913 22.01 12.5764
398 7.86171 1.56874 14.1479
399 9.43369 22.0104 12.5764
400 11.0058 1.56901 14.1485
401 12.5776 22.0108 12.5764
402 14.1496 1.56913 14.1487
403 15.7214 22.0108 12.5764
404 17.2935 1.56912 14.1486
405 18.8654 22.0107 12.5764
406 20.4376 1.56897 14.1484
407 22.0099 3.14162 12.5764
408 1.57076 4.71465 14.1475
409 3.14361 3.14162 12.5764
410 4.71665 4.71474 14.147
411 6.28926 3.14162 12.5764
412 7.86172 4.7145 14.1479
413 9.43376 3.14162 12.5764
414 11.0058 4.71423 14.1485
415 12.5777 3.14162 12.5764
416 14.1496 4.71411 14.1487
417 15.7215 3.14162 12.5764
418 17.2935 4.71412 14.1486
419 18.8656 3.14162 12.5764
420 20.4376 4.71427 14.1484
421 22.0098 6.28721 12.5764
422 1.57086 7.86002 14.148
423 3.14354 6.28738 12.5764
424 4.71625 7.86005 14.1479
425 6.28914 6.28743 12.5764
426 7.86157 7.86003 14.148
427 9.4337 6.28701 12.5764
428 11.0056 7.85939 14.1485
429 12.5776 6.28668 12.5764
430 14.1494 7.8591 14.1487
431 15.7214 6.28659 12.5764
432 17.2932 7.85919 14.1486
433 18.8654 6.28674 12.5764
434 20.4373 7.85976 14.1481
435 22.0099 9.43221 12.5764
436 1.57095 11.0046 14.1483
437 3.1435 9.4323 12.5764
438 4.71603 11.0046 14.1484
439 6.28865 9.43228 12.5764
440 7.86094 11.0045 14.1484
441 9.43346 9.43213 12.5764
442 11.0053 11.0043 14.1486
443 12.5774 9.43166 12.5764
444 14.1491 11.004 14.1486
445 15.7212 9.43159 12.5764
446 17.2929 11.0043 14.1485
447 18.8652 9.43196 12.5764
448 20.4375 11.0044 14.1484
449 22.01 12.5766 12.5764
450 1.57098 14.1487 14.1485
451 3.14347 12.5766 12.5764
452 4.71595 14.1487 14.1485
453 6.2884 12.5766 12.5764
454 7.86072 14.1487 14.1486
455 9.43301 12.5766 12.5764
456 11.005 14.1487 14.1487
457 12.5771 12.5764 12.5764
458 14.1489 14.1487 14.1487
459 15.7209 12.5765 12.5764
460 17.293 14.1487 14.1486
461 18.8653 12.5765 12.5764
462 20.4376 14.1487 14.1485
463 22.01 15.7208 12.5764
464 1.57095 17.2929 14.1483
465 3.14347 15.7208 12.5764
466 4.71602 17.2929 14.1484
467 6.28839 15.7208 12.5764
468 7.86092 17.293 14.1485
469 9.433 15.7209 12.5764
470 11.0053 17.2932 14.1486
471 12.5771 15.721 12.5764
472 14.1491 17.2934 14.1487
473 15.7209 15.721 12.5764
474 17.2929 17.2932 14.1485
475 18.8653 15.7209 12.5764
476 20.4375 17.293 14.1484
477 22.0099 18.8652 12.5764
478 1.57086 20.4374 14.148
479 3.14349 18.8651 12.5764
480 4.71624 20.4374 14.1479
481 6.28863 18.8652 12.5764
482 7.86155 20.4374 14.148
483 9.43344 18.8653 12.5764
484 11.0056 20.4381 14.1486
485 12.5774 18.8658 12.5764
486 14.1494 20.4383 14.1487
487 15.7212 18.8659 12.5764
488 17.2932 20.4382 14.1486
489 18.8652 18.8655 12.5764
490 20.4374 20.4377 14.1481
491 22.0095 22.0097 15.7192
492 1.57006 1.56725 17.2891
493 3.14357 22.0096 15.7187
494 4.71859 1.56694 17.2866
495 6.28988 22.0093 15.7185
496 7.86253 1.56839 17.2913
497 9.43391 22.0103 15.7203
498 11.0059 1.56897 17.293
499 12.5776 22.0107 15.721
500 14.1495 1.56913 17.2935
501 15.7213 22.0108 15.721
502 17.2933 1.5691 17.2933
503 18.8653 22.0106 15.7206
504 20.4375 1.56893 17.2925
505 22.01 3.14163 15.7199
506 1.57006 4.71601 17.2891
507 3.14374 3.14163 15.7166
508 4.71859 4.71632 17.2866
509 6.28987 3.14163 15.7183
510 7.86254 4.71486 17.2913
511 9.43395 3.14162 15.7203
512 11.0059 4.71428 17.293
513 12.5777 3.14162 15.721
514 14.1495 4.71412 17.2935
515 15.7215 3.14162 15.7211
516 17.2933 4.71415 17.2933
517 18.8655 3.14162 15.7207
518 20.4375 4.71433 17.2925
519 22.0095 6.28775 15.7192
520 1.57069 7.86118 17.2912
521 3.14357 6.28784 15.7187
522 4.71672 7.86104 17.291
523 6.28989 6.28817 15.7185
524 7.86264 7.86116 17.2914
525 9.43392 6.28714 15.7203
526 11.0057 7.85955 17.2931
527 12.5776 6.28671 15.721
528 14.1491 7.85915 17.2934
529 15.7213 6.28661 15.721
530 17.2927 7.85945 17.293
531 18.8653 6.28681 15.7206
532 20.4363 7.86096 17.2911
533 22.0098 9.4326 15.7201
534 1.5709 11.0051 17.2925
535 3.14355 9.43264 15.72
536 4.7162 11.005 17.2925
537 6.28886 9.43262 15.7201
538 7.86121 11.0049 17.2928
539 9.43364 9.43235 15.7205
540 11.0051 11.0042 17.2934
541 12.5773 9.43173 15.721
542 14.1487 11.0041 17.2934
543 15.7209 9.43168 15.7209
544 17.2924 11.0046 17.2927
545 18.8648 9.43231 15.7202
546 20.4371 11.005 17.2925
547 22.01 12.5767 15.7205
548 1.57095 14.1487 17.2928
549 3.1435 12.5767 15.7205
550 4.71605 14.1487 17.2929
551 6.28847 12.5767 15.7207
552 7.86081 14.1487 17.2931
553 9.43305 12.5766 15.7209
554 11.0048 14.1487 17.2935
555 12.5769 12.5765 15.7211
556 14.1486 14.1487 17.2935
557 15.7207 12.5765 15.7208
558 17.2925 14.1487 17.293
559 18.8651 12.5767 15.7206
560 20.4373 14.1487 17.2928
561 22.01 15.7207 15.7205
562 1.5709 17.2923 17.2925
563 3.14349 15.7207 15.7205
564 4.71618 17.2924 17.2925
565 6.28846 15.7207 15.7207
566 7.86119 17.2925 17.2928
567 9.43304 15.7208 15.7209
568 11.005 17.2932 17.2934
569 12.5769 15.721 15.7211
570 14.1487 17.2933 17.2934
571 15.7207 15.721 15.7209
572 17.2924 17.2928 17.2928
573 18.8651 15.7208 15.7206
574 20.4371 17.2924 17.2925
575 22.0098 18.8648 15.7201
576 1.57069 20.4363 17.2912
577 3.14354 18.8648 15.72
578 4.7167 20.4364 17.291
579 6.28884 18.8648 15.7201
580 7.86262 20.4363 17.2914
581 9.43362 18.8651 15.7205
582 11.0057 20.4379 17.2931
583 12.5773 18.8657 15.721
584 14.1491 20.4383 17.2934
585 15.7209 18.8658 15.7209
586 17.2927 20.438 17.293
587 18.8648 18.8651 15.7202
588 20.4363 20.4365 17.2911
589 22.0073 22.0066 18.8605
590 1.56488 1.55797 20.43
591 3.14381 22.0078 18.8602
592 4.73178 1.55469 20.419
593 6.29373 22.0054 18.8595
594 7.86393 1.56813 20.4362
595 9.43453 22.01 18.8649
596 11.0056 1.56909 20.4383
597 12.5774 22.0108 18.8659
598 14.1492 1.56918 20.4385
599 15.721 22.0108 18.8659
600 17.2931 1.56914 20.4383
601 18.8645 22.0101 18.865
602 20.4363 1.56829 20.4369
603 -0.000544955 3.14164 18.8642
604 1.56488 4.72532 20.43
605 3.14528 3.14164 18.8485
606 4.7318 4.72859 20.419
607 6.29206 3.14163 18.8601
608 7.86393 4.71512 20.4362
609 9.43446 3.14163 18.8647
610 11.0056 4.71416 20.4383
611 12.5776 3.14162 18.8658
612 14.1492 4.71406 20.4385
613 15.7214 3.14162 18.8659
614 17.293 4.71412 20.4383
615 18.8655 3.14163 18.8654
616 20.4363 4.71498 20.4369
617 22.0073 6.29089 18.8605
618 1.57063 7.8649 20.4354
619 3.14381 6.2897 18.8602
620 4.71872 7.86463 20.4342
621 6.29374 6.29207 18.8595
622 7.86154 7.86011 20.4378
623 9.43454 6.28747 18.8649
624 11.005 7.85924 20.4385
625 12.5774 6.28668 18.8659
626 14.1486 7.85921 20.4384
627 15.721 6.28665 18.8658
628 17.2915 7.86021 20.4376
629 18.8645 6.28735 18.865
630 20.4323 7.86555 20.433
631 22.0093 9.43412 18.8641
632 1.57088 11.0064 20.4373
633 3.14376 9.43387 18.8639
634 4.71651 11.0059 20.4373
635 6.28969 9.43398 18.8641
636 7.86072 11.0045 20.4383
637 9.43327 9.43212 18.8656
638 11.0047 11.0041 20.4385
639 12.5768 9.43168 18.8659
640 14.1484 11.0041 20.4384
641 15.7203 9.43199 18.8655
642 17.2921 11.0048 20.4379
643 18.8634 9.43373 18.8639
644 20.4361 11.0066 20.4369
645 22.0097 12.5772 18.865
646 1.57091 14.1487 20.4377
647 3.14359 12.5771 18.8651
648 4.71617 14.1487 20.4379
649 6.28865 12.577 18.8653
650 7.86055 14.1487 20.4384
651 9.43277 12.5765 18.8659
652 11.0046 14.1487 20.4385
653 12.5766 12.5764 18.866
654 14.1484 14.1487 20.4384
655 15.7204 12.5766 18.8657
656 17.2923 14.1487 20.4381
657 18.8644 12.5771 18.8651
658 20.4368 14.1487 20.4377
659 22.0098 15.7202 18.8651
660 1.57088 17.291 20.4373
661 3.14359 15.7203 18.8651
662 4.7165 17.2915 20.4373
663 6.28864 15.7204 18.8653
664 7.86071 17.293 20.4383
665 9.43277 15.7209 18.8659
666 11.0047 17.2934 20.4385
667 12.5766 15.721 18.866
668 14.1484 17.2933 20.4384
669 15.7204 15.7209 18.8657
670 17.2921 17.2927 20.438
671 18.8644 15.7203 18.8651
672 20.4361 17.2908 20.4369
673 22.0093 18.8633 18.8641
674 1.57063 20.4325 20.4354
675 3.14376 18.8636 18.8639
676 4.71871 20.4328 20.4342
677 6.28967 18.8635 18.8641
678 7.86153 20.4373 20.4378
679 9.43326 18.8653 18.8657
680 11.005 20.4382 20.4385
681 12.5768 18.8658 18.866
682 14.1486 20.4382 20.4384
683 15.7203 18.8654 18.8656
684 17.2915 20.4372 20.4376
685 18.8634 18.8637 18.8639
686 20.4323 20.4319 20.4331
687 2.35797 3.14168 1.56933
