LAMMPS data file via write_data, version 2 Aug 2023, timestep = 418, units = metal

1373 atoms
3 atom types

-0.001191615291006533 31.127391484379064 xlo xhi
-0.0011601457326951043 22.0107071457327 ylo yhi
-0.0011913193304614578 31.127391188418535 zlo zhi

Masses

1 183.84
2 1.008
3 4.0026

Atoms # atomic

1 1 -0.00018228081098336702 20.435637796327722 2.223288189072981 0 0 0
2 1 2.2250969755952648 20.42399739269306 31.101698673730283 0 0 -1
3 1 31.12521659890081 20.427251587506618 6.679953141565798 -1 0 0
4 1 2.2504752046412553 20.32027097741901 4.473945645492604 0 0 0
5 1 4.456482752365542 20.427251587440328 2.2201039645919076 0 0 0
6 1 6.673972535575531 20.436534144993093 31.12397955158199 0 0 -1
7 1 31.126327540361356 20.43820555476065 11.11791903371071 -1 0 0
8 1 2.221992089649196 20.4375631634267 8.89540682435036 0 0 0
9 1 4.447468759436757 20.43444091613031 6.6709391441567885 0 0 0
10 1 6.671936471746491 20.437563164975384 4.445462523959099 0 0 0
11 1 8.894448726478378 20.43820555376013 2.2212149143631508 0 0 0
12 1 11.117553106298473 20.43828324337048 31.126409164456582 0 0 -1
13 1 31.12697282209598 20.438388232959387 15.563701583636552 -1 0 0
14 1 2.2219202385947963 20.438362503626166 13.34039218039318 0 0 0
15 1 4.445718731218718 20.43839343917316 11.11689163596394 0 0 0
16 1 6.669604968581164 20.438211762829766 8.893075319269819 0 0 0
17 1 8.893421329590813 20.438393438738455 6.669189121407895 0 0 0
18 1 11.116921917633892 20.43836250474526 4.44539067010573 0 0 0
19 1 13.340231361165586 20.438388231343808 2.221860195439367 0 0 0
20 1 15.56349077926559 20.438400459121638 31.127006530465106 0 0 -1
21 1 31.127255530052633 20.438389519710483 20.00969545331332 -1 0 0
22 1 2.22219612672909 20.4384134326881 17.78642496016024 0 0 0
23 1 4.445714162395861 20.438421979427716 15.563166640120368 0 0 0
24 1 6.669244334056997 20.43843868551038 13.339751469883863 0 0 0
25 1 8.892784382175636 20.43845620566451 11.116254688525807 0 0 0
26 1 11.116281209149658 20.438438684853796 8.892714681113759 0 0 0
27 1 13.339696416720459 20.438421979382866 6.669184552561468 0 0 0
28 1 15.56295478315294 20.438413432605298 4.445666559083673 0 0 0
29 1 17.7862253165803 20.438389519363664 2.2221429059981217 0 0 0
30 1 20.009637236823586 20.438375694015114 31.127220766855174 0 0 -1
31 1 -0.0011841535225265432 20.438216388303704 24.455344506292512 0 0 0
32 1 2.2224864873699173 20.438300093087943 22.232183284864423 0 0 0
33 1 4.445994172581698 20.438376065680988 20.00917228476544 0 0 0
34 1 6.669427751137793 20.43841584144636 17.78610018017064 0 0 0
35 1 8.892798882284097 20.438437564875098 15.56290362293378 0 0 0
36 1 11.116138476701197 20.438450763060683 13.339608739290915 0 0 0
37 1 13.339433400508865 20.438437563798004 11.116269188629895 0 0 0
38 1 15.562630003001944 20.43841583847377 8.892898100807374 0 0 0
39 1 17.78570214940779 20.4383760647933 6.669464564424698 0 0 0
40 1 20.00871318949436 20.438300092862455 4.445956921394917 0 0 0
41 1 22.23187445546198 20.43821638621748 2.2222863209754964 0 0 0
42 1 24.45591315204849 20.438309877511735 31.127096690580384 0 0 -1
43 1 31.12672989233486 20.437395241182827 28.8992601421011 -1 0 0
44 1 2.2230262667724965 20.43767530283121 26.676508627853337 0 0 0
45 1 4.446672700321123 20.43810899106312 24.4544301454287 0 0 0
46 1 6.66993764183785 20.438307290044637 22.232008861610538 0 0 0
47 1 8.893173246674527 20.438393895790323 20.009228332201392 0 0 0
48 1 11.116396395163095 20.438424393280542 17.786208466556637 0 0 0
49 1 13.339589664770402 20.43843232904831 15.5630598867766 0 0 0
50 1 15.562738289106415 20.438424394309823 13.339866659362023 0 0 0
51 1 17.785758196449716 20.438393896758992 11.116643554772326 0 0 0
52 1 20.008538769337704 20.438307289559702 8.89340799266022 0 0 0
53 1 22.23096009645425 20.438108990861256 6.670143091913351 0 0 0
54 1 24.453038617253437 20.4376753057612 4.4464967009747145 0 0 0
55 1 26.67579018251719 20.437395240860624 2.2216172689945566 0 0 0
56 1 28.904255219267508 20.438387763696802 -0.0008573589509657236 0 0 0
57 1 4.449574688048254 20.436209609526696 28.895946509787052 0 0 0
58 1 6.671417821453535 20.43790449048481 26.67709324373238 0 0 0
59 1 8.893957576321595 20.438263614373973 24.455268294429477 0 0 0
60 1 11.116908319126907 20.438379571050426 22.232612357618844 0 0 0
61 1 13.340006300261564 20.438415884797458 20.009657371374814 0 0 0
62 1 15.56311535110271 20.43842406622608 17.786585529998728 0 0 0
63 1 17.78618723563708 20.43841588444665 15.563476521107765 0 0 0
64 1 20.00914226438491 20.438379571797885 13.340378583721456 0 0 0
65 1 22.231798245274383 20.43826361385666 11.117427883474862 0 0 0
66 1 24.453623233726994 20.437904487668483 8.894888170193578 0 0 0
67 1 26.67247655107854 20.43620961020871 6.673045077928048 0 0 0
68 1 28.878228733620873 20.423997373040457 4.448567416297868 0 0 0
69 1 8.89513275643041 20.437974468276508 28.90177029948446 0 0 0
70 1 11.11755675049247 20.43828531652042 26.679159395090558 0 0 0
71 1 13.340454583433761 20.43838491299291 24.456258118871627 0 0 0
72 1 15.563549373659084 20.43841660666897 22.233226421469997 0 0 0
73 1 17.78666631255555 20.438421214872093 20.01013644958739 0 0 0
74 1 20.009756328535175 20.438416606351684 17.78701955229135 0 0 0
75 1 22.232788067849974 20.43838491198951 15.563924805627483 0 0 0
76 1 24.455689389111512 20.438285316637327 13.341027017068448 0 0 0
77 1 26.67830033320274 20.437974469568523 11.118603063078794 0 0 0
78 1 28.900509627879448 20.43653414433381 8.897442885312383 0 0 0
79 1 13.340610046025537 20.438360566970957 28.903182521779357 0 0 0
80 1 15.563743186967619 20.438403204159016 26.67998611409341 0 0 0
81 1 17.786970471456797 20.438418937887775 24.456820514786806 0 0 0
82 1 20.010184802896347 20.438420384744315 22.23365489660141 0 0 0
83 1 22.23335046439486 20.438418938133694 20.01044060791981 0 0 0
84 1 24.45651610326321 20.43840320528823 17.78721336727801 0 0 0
85 1 26.679712555564553 20.438360566692275 15.56408026943266 0 0 0
86 1 28.902939241550897 20.438283242162147 13.341023369495568 0 0 0
87 1 17.786827101563738 20.438409297745498 28.903636336628605 0 0 0
88 1 20.0102612514907 20.438421857012926 26.680361386172898 0 0 0
89 1 22.233639187153592 20.43841796972799 24.457109239734955 0 0 0
90 1 24.45689137570077 20.438421857710924 22.233731344877814 0 0 0
91 1 26.680166368907376 20.438409298025746 20.010297237986805 0 0 0
92 1 28.90353660752779 20.438400459771426 17.78696095829197 0 0 0
93 1 22.233361768960265 20.438411011634823 28.903806439430568 0 0 0
94 1 24.457030271323767 20.438403680400537 26.680500277149967 0 0 0
95 1 26.680336471886765 20.438411011160465 24.456831821799092 0 0 0
96 1 28.903750841122363 20.4383756934005 22.2331073300286 0 0 0
97 1 26.680449491156104 20.438357322027326 28.903919457864838 0 0 0
98 1 28.90362676584169 20.43830987839341 26.679383164364967 0 0 0
99 1 -0.0008146127120260483 17.291938682567835 2.222655861252816 0 0 0
100 1 31.126850890845205 18.86444966111657 31.12525504797949 -1 0 -1
101 1 2.223476790600713 17.28822418281569 31.12171520661916 0 0 -1
102 1 31.125030097641474 17.28798553054446 6.672051186101384 -1 0 0
103 1 31.11480342880569 18.857604161786156 4.449417763984383 -1 0 0
104 1 2.2235446684135733 17.27639595423381 4.44701510269856 0 0 0
105 1 2.225947333202726 18.857604158221932 2.2096907978497944 0 0 0
106 1 4.448580792630749 17.28798552995775 2.2199174740402996 0 0 0
107 1 4.4501572354015755 18.863029326082653 31.122238996411966 0 0 -1
108 1 6.671882297167708 17.2917415482794 31.12512614787636 0 0 -1
109 1 31.126157414533814 17.29194935132306 11.119733976433524 -1 0 0
110 1 31.12496607897753 18.86184107200215 8.899308158759002 -1 0 0
111 1 2.222104605359918 17.287316269723235 8.900938899167707 0 0 0
112 1 2.2231800882021293 18.846601438154185 6.690961681775123 0 0 0
113 1 4.448589977277094 17.287840626632374 6.672060368098884 0 0 0
114 1 4.467491297148829 18.846601439660358 4.446650522188204 0 0 0
115 1 6.67746854733047 17.287316267363295 4.445575039073015 0 0 0
116 1 6.675837807039199 18.8618410696473 2.21985345103176 0 0 0
117 1 8.896263668978715 17.29194935052777 2.2210447888359512 0 0 0
118 1 8.895564638843705 18.865021346497773 31.125552882640186 0 0 -1
119 1 11.117969825357033 17.293277256886622 31.12632502088816 0 0 -1
120 1 31.126965168809 17.293713799101255 15.563965833008828 -1 0 0
121 1 31.126727503199305 18.865899927918317 13.340963688229783 -1 0 0
122 1 2.2220566579313665 17.293416757800074 13.341061968974282 0 0 0
123 1 2.2220318863571764 18.86533665926081 11.118248166184356 0 0 0
124 1 4.446347419253761 17.292631304014158 11.118471057855782 0 0 0
125 1 4.447478987732115 18.86377347337562 8.896134493128228 0 0 0
126 1 6.670601368151581 17.292408227893088 8.894071719625453 0 0 0
127 1 6.6726641430437255 18.863773473380757 6.670949378422643 0 0 0
128 1 8.895000750865318 17.29263130227132 6.669817812264486 0 0 0
129 1 8.89477785746703 18.86533665742381 4.445502317973756 0 0 0
130 1 11.11759170476047 17.293416757542495 4.445527091486709 0 0 0
131 1 11.117493425215295 18.865899927655235 2.22161487996517 0 0 0
132 1 13.34049560884156 17.293713800801736 2.2218525431993834 0 0 0
133 1 13.340545775797578 18.866029233609027 31.12677002722275 0 0 -1
134 1 15.563612715233603 17.293786921159846 31.126979731928266 0 0 -1
135 1 31.127250575259282 17.29377309244774 20.0098107769804 -1 0 0
136 1 31.127137954014767 18.86610589409131 17.78676161362776 -1 0 0
137 1 2.2222223825375176 17.29381865265223 17.78660796308406 0 0 0
138 1 2.222092209464935 18.866096895218693 15.56353533456751 0 0 0
139 1 4.445827625276309 17.293795333779343 15.563463958298646 0 0 0
140 1 4.445785649538511 18.866043202242118 13.340291724787186 0 0 0
141 1 6.669557292762129 17.293675135014883 13.34024938337715 0 0 0
142 1 6.669750411563523 18.865842847357335 11.116942743390371 0 0 0
143 1 8.893209154959848 17.293605863359613 11.11667946191756 0 0 0
144 1 8.893472436167562 18.865842847563844 8.893220759554168 0 0 0
145 1 11.116779118780425 17.293675135705055 8.893027639698875 0 0 0
146 1 11.11682146277454 18.866043202491205 6.669256040992965 0 0 0
147 1 13.339993734663604 17.293795333078375 6.669298014895492 0 0 0
148 1 13.340065107633402 18.86609689635259 4.445562638652853 0 0 0
149 1 15.563137784479352 17.293818650548673 4.44569281569649 0 0 0
150 1 15.56329143438125 18.86610589291904 2.2220253276568394 0 0 0
151 1 17.786340639900313 17.293773090995547 2.222137951008542 0 0 0
152 1 17.786598014430833 18.86609395039073 31.127133998403945 0 0 -1
153 1 20.009738166969914 17.293740840565963 31.127201928324798 0 0 -1
154 1 31.127316128754654 17.293310922480103 24.455493484417044 -1 0 0
155 1 31.12733916551295 18.865971384830914 22.232653091748784 -1 0 0
156 1 2.222467430879434 17.293564037029935 22.232327456242455 0 0 0
157 1 2.2223302467242774 18.866061792708646 20.00943001566958 0 0 0
158 1 4.446025178381309 17.293746234539036 20.00932014053401 0 0 0
159 1 4.445858781022541 18.866118931449936 17.78628352275473 0 0 0
160 1 6.6695046873488515 17.29382736700288 17.786269484814394 0 0 0
161 1 6.66936491256882 18.86614262255715 15.563079338409754 0 0 0
162 1 8.892945456557687 17.293845406702836 15.563107995606016 0 0 0
163 1 8.892874866524387 18.86613670767988 13.339762171783638 0 0 0
164 1 11.116327961073411 17.293847596452654 13.339798224940518 0 0 0
165 1 11.11629190852249 18.866136708081605 11.116345172587549 0 0 0
166 1 13.339637773871386 17.293845406524277 11.116415763634137 0 0 0
167 1 13.339609116176232 18.866142622832445 8.892835260866418 0 0 0
168 1 15.56279930710359 17.29382736793538 8.89297503651545 0 0 0
169 1 15.562813346336647 18.866118931097695 6.669329172640348 0 0 0
170 1 17.78585000429396 17.29374623424812 6.669495569559779 0 0 0
171 1 17.78595988219211 18.86606179182169 4.445800680564289 0 0 0
172 1 20.008857363438427 17.29356403641908 4.445937863946172 0 0 0
173 1 20.009182997769784 18.865971385106203 2.222226541523854 0 0 0
174 1 22.232023435866566 17.29331092399199 2.222203504773547 0 0 0
175 1 22.232782013460056 18.86597112461043 31.127197034481362 0 0 -1
176 1 24.4563411324311 17.293603517258724 31.12720569460129 0 0 -1
177 1 31.127240934964913 17.29272209585901 28.90201787709525 -1 0 0
178 1 31.1271537998698 18.86519740351282 26.67771968775379 -1 0 0
179 1 2.222814424282539 17.291745997430034 26.676508818023827 0 0 0
180 1 2.222659134535144 18.86559293506713 24.454772934517038 0 0 0
181 1 4.446584773415703 17.293066097448186 24.45466023976155 0 0 0
182 1 4.446239895689299 18.865897799483633 22.23202819084689 0 0 0
183 1 6.6699238855558 17.293590512382917 22.232201416577997 0 0 0
184 1 6.669643299734379 18.86606212566203 20.009185064819334 0 0 0
185 1 8.893207275622093 17.29378875342666 20.0093632618059 0 0 0
186 1 8.892984145403064 18.8661320369598 17.786164847772532 0 0 0
187 1 11.11646467414443 17.293851075739447 17.78632116179309 0 0 0
188 1 11.116282850335871 18.866155811835643 15.56300007829924 0 0 0
189 1 13.339681363228628 17.29386393678807 15.56315158441782 0 0 0
190 1 13.339529856395306 18.866155811473412 13.33975311476586 0 0 0
191 1 15.562850983219276 17.29385107528187 13.339934938510018 0 0 0
192 1 15.562694669827058 18.866132036121407 11.116454451045911 0 0 0
193 1 17.785893124654876 17.293788752417942 11.116677582697596 0 0 0
194 1 17.78571492729446 18.86606212639164 8.893113648494854 0 0 0
195 1 20.00873132481211 17.293590509981666 8.89339423551631 0 0 0
196 1 20.008558096019783 18.865897798416395 6.669710287685604 0 0 0
197 1 22.231190191129166 17.293066095496478 6.670055162968135 0 0 0
198 1 22.23130288432223 18.865592933308328 4.446129566694603 0 0 0
199 1 24.45303880615321 17.291745994552237 4.446284855457363 0 0 0
200 1 24.45424967743448 18.86519740182664 2.2220411737502914 0 0 0
201 1 26.678547913212917 17.29272209327877 2.222128307760889 0 0 0
202 1 26.679876563387598 18.865829947871877 31.127110885844605 0 0 -1
203 1 28.903578258808764 17.293085606251445 31.127048180990418 0 0 -1
204 1 2.223352094049984 18.86065342441004 28.89460541638723 0 0 0
205 1 4.447627077012442 17.291881398761067 28.900499747449164 0 0 0
206 1 4.447400563816418 18.86463514925528 26.6762184401838 0 0 0
207 1 6.67074119327003 17.29307226952632 26.67825323635336 0 0 0
208 1 6.670415666055812 18.865676644789833 24.454826535362262 0 0 0
209 1 8.893762283734159 17.293555257204726 24.455619663534833 0 0 0
210 1 8.893482153612183 18.86599827193129 22.232346579021335 0 0 0
211 1 11.116872598057936 17.293769167828803 22.232753622089202 0 0 0
212 1 11.116639747295205 18.866109879624428 20.009467597519443 0 0 0
213 1 13.340026176438235 17.293840871172883 20.00973549542671 0 0 0
214 1 13.339800932230714 18.866139761394688 17.786406894605957 0 0 0
215 1 15.56316106310478 17.293854166448725 17.78663124262051 0 0 0
216 1 15.56293671639067 18.866139760625867 15.56327115388129 0 0 0
217 1 17.786265359028214 17.293840870527347 15.563496398159272 0 0 0
218 1 17.78599746234694 18.86610987785063 13.34011001135944 0 0 0
219 1 20.009283528979246 17.29376916784129 13.340342862642526 0 0 0
220 1 20.008876488148626 18.865998271308836 11.11695246045604 0 0 0
221 1 22.232149614355095 17.293555256353816 11.117232590650604 0 0 0
222 1 22.231356487173063 18.865676644311744 8.893886015343986 0 0 0
223 1 24.454783227499796 17.293072270986173 8.894211540387445 0 0 0
224 1 24.452748431824254 18.864635150599486 6.670870959052277 0 0 0
225 1 26.677029783288212 17.29188139750658 6.671097470195347 0 0 0
226 1 26.671135462023884 18.860653427364333 4.4468225287248195 0 0 0
227 1 28.898245283739872 17.288224188550963 4.4469472259179055 0 0 0
228 1 28.90178511727324 18.864449660064032 2.2217382692655065 0 0 0
229 1 6.671914080088478 18.864963649150003 28.90087620973618 0 0 0
230 1 8.894540548356048 17.293089291109997 28.902246548435816 0 0 0
231 1 8.894339247847226 18.86570442726499 26.6786228386573 0 0 0
232 1 11.117383198293291 17.293583241772396 26.679331590980553 0 0 0
233 1 11.11717734066153 18.865995367321677 24.455912795556387 0 0 0
234 1 13.34041419288913 17.293779245197904 24.456331856219226 0 0 0
235 1 13.340234085699988 18.86610521585318 22.232975761102026 0 0 0
236 1 15.563548852538329 17.293841638441616 22.23326817435383 0 0 0
237 1 15.563350698755436 18.86613589458445 20.009921814420697 0 0 0
238 1 17.786687540336466 17.293853784446487 20.01015767689556 0 0 0
239 1 17.786451678470076 18.866135894544993 17.78682087715806 0 0 0
240 1 20.0097980804324 17.293841638063878 17.787019030600796 0 0 0
241 1 20.009505667416622 18.866105215283742 15.563704308874652 0 0 0
242 1 22.23286180582279 17.29377924585476 15.563884415850922 0 0 0
243 1 22.23244273993391 18.865995366934825 13.340647607004607 0 0 0
244 1 24.45586158385577 17.293583240306525 13.34085346472048 0 0 0
245 1 24.455152829272794 18.86570442688948 11.117809554772938 0 0 0
246 1 26.678776579563994 17.293089289908067 11.118010855933722 0 0 0
247 1 26.67740624513017 18.864963649538613 8.895384429192882 0 0 0
248 1 28.90165622229278 17.2917415471599 8.895352649733537 0 0 0
249 1 28.898769068983164 18.863029325815994 6.6736276259156115 0 0 0
250 1 11.11776126195959 18.865797074004497 28.902682027636413 0 0 0
251 1 13.340705260676787 17.293668961294745 28.903151596110664 0 0 0
252 1 13.340604997885047 18.866032497722806 26.679669303748977 0 0 0
253 1 15.563779854043778 17.293804797668173 26.67998328274704 0 0 0
254 1 15.563696677975727 18.86611489500678 24.456586547684893 0 0 0
255 1 17.786983440776886 17.2938464885521 24.456829944930725 0 0 0
256 1 17.78686148029694 18.866135032851147 22.233475231375472 0 0 0
257 1 20.0101912684462 17.29385253368706 22.233661362740108 0 0 0
258 1 20.010005136984354 18.866135033427494 20.01033161589524 0 0 0
259 1 22.23335989373257 17.293846489764263 20.010453577353474 0 0 0
260 1 22.233116495163436 18.866114895053165 17.787166856268527 0 0 0
261 1 24.45651327360196 17.2938047984696 17.7872500335791 0 0 0
262 1 24.45619929552217 18.866032497966785 15.56407522000153 0 0 0
263 1 26.679681628341434 17.29366896220277 15.564175483937893 0 0 0
264 1 26.67921206735314 18.865797073935887 13.341231528177872 0 0 0
265 1 28.90285509960574 17.293277259878764 13.341440090808334 0 0 0
266 1 28.90208295701816 18.86502134724306 11.119034947095757 0 0 0
267 1 15.563708445908055 18.866090651031886 28.903450300082095 0 0 0
268 1 17.786897264035538 17.293822204821076 28.903624507249233 0 0 0
269 1 17.78698325942047 18.86612682475821 26.680202236475562 0 0 0
270 1 20.010287971004047 17.29384847479874 26.68036150578577 0 0 0
271 1 20.010290839586975 18.86613523188038 24.45700117405722 0 0 0
272 1 22.233630063399968 17.29385408154431 24.4571001146323 0 0 0
273 1 22.233531121862136 18.86613523275939 22.233760933611386 0 0 0
274 1 24.45689149662183 17.29384847389218 22.23375806444987 0 0 0
275 1 24.456732227037044 18.866126826327275 20.01045339623014 0 0 0
276 1 26.680154541006964 17.293822204242282 20.010367402551203 0 0 0
277 1 26.679980333776374 18.866090651055604 17.7871786259056 0 0 0
278 1 28.90350980875229 17.293786919646127 17.787082894472526 0 0 0
279 1 28.903300102675203 18.86602923360514 15.564015997853433 0 0 0
280 1 20.010071927610284 18.8661110723101 28.90374693206304 0 0 0
281 1 22.233436409991093 17.293808801903424 28.90382285401841 0 0 0
282 1 22.233621742360924 18.86612813341726 26.680462440288473 0 0 0
283 1 24.45698676152548 17.293819384800006 26.680456769285907 0 0 0
284 1 24.456992431598017 18.866128132978425 24.457091795400988 0 0 0
285 1 26.680352888060895 17.293808803044474 24.456906462205215 0 0 0
286 1 26.680276965946668 18.86611107196533 22.23354201997368 0 0 0
287 1 28.90373200284672 17.29374084218984 22.23320825919729 0 0 0
288 1 28.903664072851804 18.86609394986263 20.010068152801168 0 0 0
289 1 24.456845657519327 18.866072932587894 28.903847913318938 0 0 0
290 1 26.680274540173073 17.29364157278642 28.90374450808642 0 0 0
291 1 26.680377946331642 18.866072932677522 26.68031566652621 0 0 0
292 1 28.903735771356985 17.29360351788236 26.679811142835685 0 0 0
293 1 28.903727109216916 18.865971124667883 24.456252065395077 0 0 0
294 1 28.90364096463612 18.865829949454625 28.903346527259988 0 0 0
295 1 31.127004033441867 14.147928352674839 2.2218914099780864 -1 0 0
296 1 31.12721582863955 15.72041661913385 31.126555139260915 -1 0 -1
297 1 2.2227631026623964 14.147250192761692 31.125495692904344 0 0 -1
298 1 31.126198118570827 14.146761651973794 6.670545302173423 -1 0 0
299 1 31.125046818186945 15.71699531697865 4.44646695455356 -1 0 0
300 1 2.2224563282351495 14.144714678956417 4.4459267609024895 0 0 0
301 1 2.22299652081112 15.716995316179219 2.21993419048011 0 0 0
302 1 4.447074910926537 14.146761652797466 2.221085491474422 0 0 0
303 1 4.447492340725038 15.719169939703134 31.124965802777897 0 0 -1
304 1 6.670821604939613 14.148128890305326 31.125921452479524 0 0 -1
305 1 31.12655558350499 14.148226906672633 11.118176555241712 -1 0 0
306 1 31.126123977343216 15.718929471763992 8.895301483767621 -1 0 0
307 1 2.222156745890691 14.146556521062992 8.89546459573343 0 0 0
308 1 2.2225312883269956 15.714493830021098 6.6729590181766545 0 0 0
309 1 4.447063453594032 14.146413956616287 6.670533847817374 0 0 0
310 1 4.449488624916237 15.714493831485765 4.446001722417263 0 0 0
311 1 6.671994244462122 14.14655652047509 4.445627179447352 0 0 0
312 1 6.671831129543439 15.718929472235676 2.2210113505345617 0 0 0
313 1 8.894706245038126 14.148226904540868 2.2214429595500023 0 0 0
314 1 8.894627781908795 15.720551103386809 31.126041878003885 0 0 -1
315 1 11.117604957209068 14.148888281276825 31.126493786920072 0 0 -1
316 1 31.12694143985847 14.149037094477228 15.564258020056663 -1 0 0
317 1 31.12668004161926 15.720794161665008 13.341631333278537 -1 0 0
318 1 2.222081882936836 14.148597895532445 13.34149544089964 0 0 0
319 1 2.2220456147678602 15.719299454519849 11.119744167480684 0 0 0
320 1 4.446147249273225 14.148413854312683 11.117828844591212 0 0 0
321 1 4.446680697991805 15.719218802785402 8.894967398291685 0 0 0
322 1 6.670280069936933 14.148332945026178 8.893750420102242 0 0 0
323 1 6.671497047903402 15.719218800982643 6.670151094114609 0 0 0
324 1 8.894358537805816 14.148413856183572 6.669617639876365 0 0 0
325 1 8.896273859025316 15.719299453773479 4.445516049074542 0 0 0
326 1 11.118025174892686 14.148597896124718 4.445552316230371 0 0 0
327 1 11.118161067399297 15.720794164387764 2.221567418289793 0 0 0
328 1 13.340787797435233 14.14903709342601 2.221828815931649 0 0 0
329 1 13.340770633980718 15.721321178943182 31.12672281440024 0 0 -1
330 1 15.56376563299473 14.149204380293808 31.126951706275484 0 0 -1
331 1 31.127238122890045 14.14921203258202 20.010004860462917 -1 0 0
332 1 31.127122310267914 15.72149977550015 17.78697852254318 -1 0 0
333 1 2.22223481642623 14.149231841469366 17.786877949427925 0 0 0
334 1 2.2221367286105838 15.721396438171311 15.563945681769038 0 0 0
335 1 4.445909240199514 14.149125699054473 15.563818749588913 0 0 0
336 1 4.445982395754932 15.721053120443647 13.341005106121935 0 0 0
337 1 6.6696265755077215 14.149081266184266 13.340400352638962 0 0 0
338 1 6.669887613237005 15.720941443506145 11.117250489740703 0 0 0
339 1 8.89331537249276 14.149055952774336 11.11678568095913 0 0 0
340 1 8.89378018256294 15.720941443906954 8.893357961646855 0 0 0
341 1 11.116930086335357 14.149081266084417 8.893096924905727 0 0 0
342 1 11.117534839927572 15.721053120154622 6.669452785606457 0 0 0
343 1 13.340348525625886 14.149125698869954 6.669379630134381 0 0 0
344 1 13.340475459362986 15.721396437089258 4.445607160963761 0 0 0
345 1 15.563407768337274 14.14923184195086 4.4457052486842965 0 0 0
346 1 15.56350834306584 15.721499773017714 2.2220096858595273 0 0 0
347 1 17.7865347224424 14.149212031300017 2.222125497179862 0 0 0
348 1 17.786732054888084 15.721507504706585 31.12711655480964 0 0 -1
349 1 20.009959073296784 14.149226015968344 31.127218695567024 0 0 -1
350 1 31.12736764950081 14.148998820134675 24.456133911595767 -1 0 0
351 1 31.12731771173577 15.721331723317116 22.23282646441043 -1 0 0
352 1 2.2224525021557717 14.149033736571097 22.232599116047876 0 0 0
353 1 2.222341577225017 15.721467872390903 20.009617830949377 0 0 0
354 1 4.446048085521281 14.149193659562979 20.00954911634232 0 0 0
355 1 4.445919726552203 15.721523561380417 17.786533120572358 0 0 0
356 1 6.669569165932938 14.149247177338367 17.78649867412608 0 0 0
357 1 6.669512974283517 15.721489947054 15.56340182416851 0 0 0
358 1 8.893040015069687 14.149265294832986 15.563279055382104 0 0 0
359 1 8.89306100454736 15.721470341612154 13.340024226543376 0 0 0
360 1 11.116461338793973 14.149275190736027 13.339931604575009 0 0 0
361 1 11.116553961105677 15.721470342365413 11.116531312032079 0 0 0
362 1 13.339808834589363 14.149265295094539 11.116510323038998 0 0 0
363 1 13.339931602104219 15.72148994762986 8.892983323645833 0 0 0
364 1 15.563028496099616 14.149247176764552 8.893039516347205 0 0 0
365 1 15.563062941344038 15.721523560701195 6.669390116169607 0 0 0
366 1 17.78607897984544 14.149193657972235 6.669518476682705 0 0 0
367 1 17.78614769319633 15.721467871272697 4.445812009906156 0 0 0
368 1 20.009129024771887 14.149033734916696 4.445922934146894 0 0 0
369 1 20.00935637212451 15.721331721396542 2.2222050858475164 0 0 0
370 1 22.23266385908378 14.14899881914176 2.222255022263474 0 0 0
371 1 22.233093092111883 15.721416407801302 31.12725299106289 0 0 -1
372 1 24.456545858969648 14.149140083743397 31.12727552135862 0 0 -1
373 1 31.127325689163698 14.148700155206182 28.902943501641456 -1 0 0
374 1 31.127345956893823 15.720910174272069 26.67909745289872 -1 0 0
375 1 2.2226443389051402 14.148307747751605 26.67853402904432 0 0 0
376 1 2.2225873022508873 15.720767434559853 24.455085179046797 0 0 0
377 1 4.446381067088918 14.148848783635435 24.45551312140379 0 0 0
378 1 4.446224989831141 15.721236961370677 22.232262776576878 0 0 0
379 1 6.669854671395551 14.149127610761258 22.232565797679705 0 0 0
380 1 6.669679212351268 15.721471141698741 20.009383535104067 0 0 0
381 1 8.893219348076741 14.149252124091495 20.009559416668363 0 0 0
382 1 8.893066678268909 15.72154862282514 17.786347416048393 0 0 0
383 1 11.116519073112885 14.149292312726512 17.786451889288756 0 0 0
384 1 11.116399357986392 15.721573015901338 15.563156610354378 0 0 0
385 1 13.33977392391747 14.149302361261219 15.563244146503115 0 0 0
386 1 13.339686387988724 15.721573014909902 13.339869623116707 0 0 0
387 1 15.56298170916293 14.149292312328067 13.33998933726263 0 0 0
388 1 15.562877238289262 15.721548621193289 11.116536987796716 0 0 0
389 1 17.786089279067788 14.149252124411309 11.116689653441709 0 0 0
390 1 17.785913398305713 15.721471139849642 8.893149560929421 0 0 0
391 1 20.009095704382595 14.149127609943521 8.893325020334888 0 0 0
392 1 20.00879268518163 15.721236959596512 6.669695380371865 0 0 0
393 1 22.232043071951914 14.148848783548537 6.669851458567369 0 0 0
394 1 22.231615130140177 15.720767436411336 4.446057736217354 0 0 0
395 1 24.455064020040965 14.148307747582423 4.446114772856941 0 0 0
396 1 24.455627444357788 15.720910176218478 2.2222333330181856 0 0 0
397 1 26.67947353689999 14.148700154262107 2.2222130662997133 0 0 0
398 1 26.679968841189062 15.721219377690785 31.127213963336672 0 0 -1
399 1 28.903539300711685 14.148827556758771 31.12700922395606 0 0 -1
400 1 2.222847426379213 15.719045104325158 28.900737928827834 0 0 0
401 1 4.4468072946267965 14.148214504515838 28.902003937778236 0 0 0
402 1 4.4467623012065705 15.72052991216836 26.67820247243245 0 0 0
403 1 6.670308641544495 14.148803144188472 26.678907393571578 0 0 0
404 1 6.670158719556431 15.72114181442609 24.45547172116061 0 0 0
405 1 8.89360599577573 14.149099507988163 24.45591135446483 0 0 0
406 1 8.893421331252913 15.721430753104382 22.232601240993006 0 0 0
407 1 11.116842874576925 14.149244629920586 22.232894718537334 0 0 0
408 1 11.116660303076488 15.721544781800386 20.00960816659375 0 0 0
409 1 13.340047717595118 14.149292796121522 20.009822856960984 0 0 0
410 1 13.339861239888108 15.721572940634642 17.786500786766283 0 0 0
411 1 15.563214951660793 14.149301130381634 17.78668513092623 0 0 0
412 1 15.563030607839051 15.72157294107159 15.563331459129936 0 0 0
413 1 17.786352719971774 14.14929279567682 15.563517939767099 0 0 0
414 1 17.78613803061881 15.721544782558015 13.340130567400838 0 0 0
415 1 20.009424625096074 14.149244628857954 13.340313138486076 0 0 0
416 1 20.009131148316804 15.721430752092997 11.11689163915641 0 0 0
417 1 22.2324413031372 14.149099507624955 11.117076302564806 0 0 0
418 1 22.23200166908783 15.721141812681717 8.89362906845199 0 0 0
419 1 24.455437385275935 14.148803141306177 8.893778990652066 0 0 0
420 1 24.45473246319728 15.720529911761078 6.670232690509434 0 0 0
421 1 26.678533971392408 14.148214506096059 6.670277685656773 0 0 0
422 1 26.67726796260621 15.719045102330494 4.44631785953034 0 0 0
423 1 28.90202576944936 14.147250191209501 4.446233535657208 0 0 0
424 1 28.903085215023562 15.720416617752063 2.222103202540505 0 0 0
425 1 6.670844893658536 15.720516867732417 28.901971863334154 0 0 0
426 1 8.894070105403499 14.148809319501613 28.90262862470404 0 0 0
427 1 8.89396007037311 15.721135850811265 26.679055267599022 0 0 0
428 1 11.11722025141123 14.149115345915142 26.679501455587996 0 0 0
429 1 11.117067357397314 15.721423439379537 24.456091138079028 0 0 0
430 1 13.340375731928724 14.149249856702898 24.456416167634025 0 0 0
431 1 13.340221849293153 15.721540942552757 22.23306827683805 0 0 0
432 1 15.56355159870533 14.149295285453718 22.233317868855636 0 0 0
433 1 15.563376138095391 15.721571044350709 20.00997658866842 0 0 0
434 1 17.786713822314724 14.149303091034701 20.010183959016448 0 0 0
435 1 17.78650645151626 15.72157104446663 17.786846316421222 0 0 0
436 1 20.00984777344765 14.149295287239125 17.78702177724309 0 0 0
437 1 20.009598182599916 15.721540942602875 15.563692070035668 0 0 0
438 1 22.232946116017022 14.149249856311302 15.563845954360216 0 0 0
439 1 22.23262108382448 15.721423438943884 13.340537621791867 0 0 0