ITEM: TIMESTEP
603
ITEM: NUMBER OF ATOMS
2745
ITEM: BOX BOUNDS pp pp pp
2.9745569251763519e-03 3.8118679098649977e+01
-1.6318266862124370e-02 3.5957758013398319e+01
-6.0931896608006153e-03 3.1132293058748925e+01
ITEM: ATOMS id x y z
1 0.634862 28.2487 31.1321
2 0.537649 32.1036 2.21822
3 37.778 30.8183 31.1318
4 2.38522 30.818 31.1318
5 37.6758 34.6716 2.20176
6 2.28751 34.6703 2.21712
7 1.41264 33.3873 31.1294
8 4.1356 33.3878 31.132
9 0.829223 20.5404 31.1322
10 0.732062 24.3943 2.21807
11 37.9726 23.1098 31.1322
12 2.57955 23.1097 31.1322
13 0.63486 28.2471 4.44265
14 37.8754 26.9638 2.21807
15 2.48251 26.9632 2.21809
16 1.60723 25.6791 31.1322
17 4.32997 25.6789 31.1322
18 0.53779 32.0988 6.66939
19 37.7783 30.8173 4.44285
20 2.38767 30.8101 4.44355
21 1.51017 29.5328 2.21799
22 4.23393 29.5312 2.21789
23 3.35765 28.2483 31.1322
24 6.08064 28.2479 31.1321
25 37.6741 34.6619 6.68969
26 2.28587 34.662 6.67982
27 1.42306 33.3744 4.44584
28 4.15526 33.3558 4.44583
29 3.26238 32.1001 2.21736
30 5.98786 32.0979 2.21715
31 5.10841 30.8174 31.1318
32 7.83169 30.8171 31.1318
33 5.017 34.6671 2.21833
34 7.73909 34.6692 2.21729
35 6.85927 33.3868 31.1317
36 9.58205 33.387 31.1319
37 1.02337 12.8329 31.1317
38 0.92637 16.6865 2.21791
39 0.0511415 15.402 31.132
40 2.77388 15.4018 31.132
41 0.829246 20.5402 4.44227
42 38.0698 19.2558 2.21798
43 2.67675 19.2556 2.218
44 1.80156 17.9711 31.1321
45 4.52422 17.9709 31.1322
46 0.732119 24.3938 6.66676
47 37.9726 23.1095 4.44232
48 2.57965 23.1091 4.44237
49 1.70441 21.8249 2.21803
50 4.42712 21.8247 2.21805
51 3.55188 20.5403 31.1322
52 6.27455 20.5401 31.1322
53 0.634978 28.2473 8.89175
54 37.8755 26.963 6.66696
55 2.48276 26.9623 6.66723
56 1.60731 25.6781 4.44249
57 4.33049 25.6772 4.44252
58 3.45482 24.3939 2.21807
59 6.17772 24.3936 2.21807
60 5.30226 23.1095 31.1322
61 8.02496 23.1094 31.1322
62 0.537614 32.1011 11.1185
63 37.778 30.8163 8.89274
64 2.38595 30.8154 8.89353
65 1.51064 29.5309 6.66803
66 4.23465 29.5297 6.6684
67 3.35874 28.2447 4.44281
68 6.08272 28.2442 4.44278
69 5.20569 26.9625 2.21805
70 7.92882 26.9622 2.21802
71 7.05279 25.6786 31.1322
72 9.77554 25.6786 31.1322
73 37.6811 34.6726 11.1168
74 2.28884 34.6722 11.1172
75 1.41322 33.3833 8.89829
76 4.13783 33.3836 8.89698
77 3.2641 32.0971 6.67154
78 5.99034 32.0947 6.67092
79 5.11439 30.8067 4.44346
80 7.83481 30.814 4.44304
81 6.95772 29.5304 2.21776
82 9.67988 29.5317 2.21803
83 8.80357 28.2478 31.1321
84 11.5261 28.2481 31.1322
85 5.02663 34.6602 6.68143
86 7.74303 34.6679 6.67081
87 6.86762 33.3807 4.44442
88 9.58608 33.3849 4.44306
89 8.70913 32.1003 2.21794
90 11.4304 32.1017 2.21803
91 10.5542 30.8174 31.1321
92 13.2764 30.8178 31.1322
93 10.4593 34.6713 2.21782
94 13.1802 34.6721 2.21802
95 12.3042 33.3874 31.1321
96 15.0264 33.3878 31.1322
97 1.21478 5.12802 31.1255
98 1.1198 8.98072 2.21688
99 0.244129 7.69609 31.1297
100 2.96781 7.69509 31.13
101 1.02329 12.8335 4.44214
102 0.147828 11.5489 2.2175
103 2.87096 11.5484 2.2176
104 1.99557 10.2639 31.1312
105 4.71853 10.2633 31.1316
106 0.926417 16.6864 6.6665
107 0.0511063 15.4022 4.44218
108 2.77394 15.4019 4.4422
109 1.89867 14.1174 2.21781
110 4.62142 14.117 2.2179
111 3.74619 12.8325 31.1319
112 6.46886 12.8321 31.1321
113 0.829294 20.5401 8.89082
114 38.0698 19.2556 6.66652
115 2.6768 19.2554 6.66655
116 1.80159 17.971 4.44224
117 4.5243 17.9708 4.44226
118 3.64909 16.6863 2.21795
119 6.37174 16.686 2.21801
120 5.49655 15.4015 31.1321
121 8.21914 15.4013 31.1322
122 0.732096 24.3939 11.1153
123 37.9726 23.1093 8.89091
124 2.57968 23.1092 8.891
125 1.70446 21.8246 6.66662
126 4.42721 21.8244 6.66666
127 3.55197 20.54 4.4423
128 6.2747 20.5398 4.44232
129 5.39943 19.2554 2.21803
130 8.12207 19.2552 2.21806
131 7.24685 17.9707 31.1322
132 9.96943 17.9706 31.1323
133 0.634853 28.248 13.34
134 37.8754 26.9632 11.1156
135 2.48258 26.9629 11.1158
136 1.60737 25.6783 8.89127
137 4.33029 25.678 8.89138
138 3.45496 24.3934 6.66685
139 6.17793 24.3932 6.66687
140 5.30252 23.1087 4.44239
141 8.02533 23.1087 4.44239
142 7.14985 21.8245 2.21807
143 9.87253 21.8244 2.21808
144 8.99718 20.54 31.1323
145 11.7198 20.5399 31.1323
146 0.537643 32.1028 15.5639
147 37.7781 30.8173 13.3407
148 2.38538 30.8173 13.3409
149 1.51018 29.532 11.1166
150 4.23337 29.5319 11.1167
151 3.35819 28.2469 8.89206
152 6.08145 28.2466 8.8921
153 5.20608 26.9617 6.66732
154 7.9293 26.9616 6.66722
155 7.05361 25.6772 4.44252
156 9.7762 25.6778 4.44246
157 8.90054 24.3935 2.21807
158 11.6231 24.3937 2.21808
159 10.7476 23.1093 31.1322
160 13.4701 23.1094 31.1323
161 37.6809 34.6727 15.5637
162 2.28805 34.6726 15.564
163 1.41304 33.3875 13.3405
164 4.13601 33.3873 13.3408
165 3.26113 32.101 11.1183
166 5.98451 32.1012 11.1178
167 5.10993 30.8152 8.89371
168 7.83341 30.8153 8.89308
169 6.9587 29.529 6.66819
170 9.6806 29.531 6.66744
171 8.80497 28.2463 4.44264
172 11.527 28.2473 4.4425
173 10.6513 26.9628 2.21807
174 13.3736 26.9633 2.21808
175 12.4981 25.6787 31.1322
176 15.2205 25.6789 31.1322
177 5.01203 34.6717 11.1176
178 7.73515 34.6718 11.1176
179 6.86286 33.3842 8.89567
180 9.5843 33.3859 8.89305
181 8.71063 32.0993 6.66855
182 11.4313 32.1013 6.66744
183 10.556 30.8161 4.44272
184 13.2775 30.8172 4.4425
185 12.4019 29.5325 2.21808
186 15.1239 29.533 2.21807
187 14.2484 28.2483 31.1322
188 16.9707 28.2486 31.1322
189 10.4611 34.6708 6.66821
190 13.1811 34.6719 6.66723
191 12.3063 33.3865 4.44264
192 15.0274 33.3873 4.44246
193 14.1521 32.1025 2.21806
194 16.874 32.1029 2.21806
195 15.9986 30.8181 31.1322
196 18.7208 30.8183 31.1322
197 15.9018 34.6726 2.21806
198 18.6237 34.6728 2.21805
199 17.7485 33.3879 31.1322
200 20.4707 33.388 31.1322
201 1.27213 1.29957 2.12045
202 0.431848 35.9516 31.1072
203 3.16125 -0.0150008 31.1291
204 1.19986 5.15836 4.44248
205 0.337146 3.85328 2.21374
206 3.06505 3.84622 2.19652
207 2.19243 2.56423 31.1062
208 4.91354 2.55338 31.1294
209 1.11997 8.98038 6.66722
210 0.239967 7.7046 4.44199
211 2.96831 7.69705 4.44238
212 2.09185 6.41334 2.21472
213 4.81459 6.40835 2.21822
214 3.94212 5.12843 31.1244
215 6.66297 5.12299 31.132
216 1.02353 12.8326 8.89087
217 0.147954 11.5486 6.66664
218 2.87104 11.5484 6.66672
219 1.99556 10.2653 4.44214
220 4.71872 10.2631 4.44224
221 3.8432 8.97924 2.21712
222 6.56555 8.97728 2.21826
223 5.69097 7.69379 31.1316
224 8.41321 7.69247 -0.0060309
225 0.926484 16.6862 11.1149
226 0.0512492 15.4017 8.89074
227 2.77398 15.4016 8.89078
228 1.89872 14.1173 6.66653
229 4.6215 14.117 6.66654
230 3.74633 12.8327 4.44219
231 6.46893 12.8319 4.44223
232 5.59369 11.5475 2.21785
233 8.31611 11.5468 2.21813
234 7.44107 10.2624 31.1322
235 10.1635 10.262 -0.00599985
236 0.829298 20.5401 13.3392
237 38.0698 19.2555 11.115
238 2.67682 19.2554 11.115
239 1.80164 17.9708 8.89076
240 4.52432 17.9707 8.89078
241 3.64914 16.6862 6.66652
242 6.37181 16.686 6.66651
243 5.49664 15.4015 4.44223
244 8.21921 15.4011 4.44226
245 7.34401 14.1165 2.21802
246 10.0665 14.1163 2.2181
247 9.19137 12.8317 -0.00607448
248 11.9139 12.8315 -0.00603016
249 0.732073 24.3942 15.5635
250 37.9726 23.1094 13.3393
251 2.57962 23.1094 13.3394
252 1.70447 21.8247 11.1151
253 4.42717 21.8246 11.1151
254 3.55199 20.54 8.89085
255 6.2747 20.5399 8.89087
256 5.3995 19.2553 6.66657
257 8.12216 19.2551 6.66656
258 7.24695 17.9705 4.44228
259 9.96954 17.9704 4.44229
260 9.09431 16.6858 2.21807
261 11.8168 16.6857 2.2181
262 10.9417 15.4011 -0.00607331
263 13.6642 15.401 -0.00605742
264 0.634808 28.2484 17.7877
265 37.8754 26.9636 15.5637
266 2.48241 26.9635 15.5638
267 1.60726 25.6787 13.3396
268 4.33004 25.6786 13.3397
269 3.45488 24.3938 11.1154
270 6.17767 24.3938 11.1154
271 5.30247 23.109 8.89104
272 8.02522 23.109 8.89102
273 7.14998 21.8243 6.66667
274 9.87266 21.8243 6.66665
275 8.99737 20.5397 4.44233
276 11.7199 20.5397 4.44232
277 10.8447 19.2551 2.21809
278 13.5672 19.2551 2.2181
279 12.692 17.9705 -0.00607589
280 15.4145 17.9705 -0.00607826
281 0.537486 32.103 20.0112
282 37.7781 30.8181 17.7876
283 2.38516 30.8181 17.7878
284 1.51002 29.533 15.5641
285 4.23285 29.533 15.5642
286 3.35774 28.2479 13.3401
287 6.08061 28.2479 13.3401
288 5.20552 26.9628 11.1159
289 7.9284 26.9629 11.1158
290 7.05324 25.6779 8.89137
291 9.77603 25.678 8.89124
292 8.90078 24.3932 6.66682
293 11.6233 24.3936 6.66671
294 10.7479 23.1089 4.44237
295 13.4704 23.1091 4.44234
296 12.5951 21.8245 2.21809
297 15.3175 21.8246 2.21809
298 14.4423 20.54 -0.0060914
299 17.1647 20.5401 31.1323
300 37.6807 34.6727 20.0108
301 2.28782 34.6728 20.0111
302 1.41274 33.3878 17.7876
303 4.13552 33.3878 17.7878
304 3.26049 32.1028 15.5642
305 5.98329 32.1028 15.5642
306 5.10839 30.8173 13.3408
307 7.83126 30.8175 13.3405
308 6.95648 29.532 11.1165
309 9.67927 29.5323 11.1161
310 8.80447 28.2468 8.89181
311 11.5268 28.2475 8.89137
312 10.6517 26.9625 6.66694
313 13.3739 26.9631 6.66675
314 12.4986 25.6783 4.44239
315 15.2209 25.6787 4.44234
316 14.3455 24.394 2.21808
317 17.0679 24.3942 2.21808
318 16.1926 23.1095 31.1323
319 18.915 23.1096 31.1323
320 5.0109 34.6726 15.5642
321 7.73365 34.6726 15.5642
322 6.85893 33.3873 13.3407
323 9.58165 33.3875 13.3404
324 8.70747 32.1017 11.117
325 11.4297 32.1022 11.1161
326 10.5554 30.8166 8.89199
327 13.2772 30.8174 8.89137
328 12.4024 29.5322 6.66699
329 15.1243 29.5328 6.66675
330 14.2491 28.2479 4.4424
331 16.9712 28.2483 4.44233
332 16.0959 26.9636 2.21807
333 18.8182 26.9638 2.21806
334 17.9429 25.6791 31.1323
335 20.6653 25.6792 31.1322
336 10.4574 34.6721 11.1165
337 13.1795 34.6724 11.1157
338 12.3056 33.3869 8.89182
339 15.0272 33.3875 8.89125
340 14.1526 32.1022 6.66695
341 16.8743 32.1028 6.66671
342 15.9993 30.8178 4.44239
343 18.7212 30.8181 4.44232
344 17.846 29.5333 2.21806
345 20.5682 29.5335 2.21804
346 19.6931 28.2487 31.1322
347 22.4154 28.2488 31.1322
348 15.9023 34.6725 6.66683
349 18.624 34.6727 6.66663
350 17.7491 33.3878 4.44236
351 20.4711 33.3879 4.44228
352 19.596 32.1031 2.21804
353 22.3181 32.1032 2.21798
354 21.4431 30.8184 31.1322
355 24.1653 30.8184 31.1321
356 21.3457 34.6729 2.21799
357 24.0678 34.6729 2.21789
358 23.1929 33.3881 31.1321
359 25.9151 33.3881 31.132
360 1.32059 1.26906 6.66289
361 0.356532 35.88 4.46609
362 3.26537 35.8725 4.49641
363 1.21707 5.12651 8.89574
364 0.341782 3.84509 6.66948
365 3.07365 3.85364 6.69764
366 2.2312 2.69979 4.46966
367 4.92656 2.54361 4.44617
368 4.04017 1.26916 2.21921
369 6.76373 1.26647 2.21767
370 5.88536 35.9572 -0.00602455
371 8.6089 35.957 31.132
372 1.12075 8.97855 11.1158
373 0.244913 7.69498 8.89229
374 2.96859 7.69483 8.89275
375 2.09226 6.41358 6.66993
376 4.81668 6.41066 6.66784
377 3.93235 5.1164 4.44375
378 6.66135 5.12202 4.44305
379 5.78702 3.83733 2.21872
380 8.51072 3.83773 2.21835
381 7.63579 2.55305 31.1321
382 10.3584 2.55309 -0.00605269
383 1.02369 12.8322 13.3392
384 0.14839 11.5477 11.1151
385 2.87123 11.5477 11.1153
386 1.99586 10.2636 8.89132
387 4.71888 10.2633 8.89131
388 3.84346 8.97969 6.66742
389 6.56617 8.97796 6.66652
390 5.68938 7.69117 4.44239
391 8.41269 7.69208 4.44244
392 7.5376 6.40719 2.21832
393 10.2606 6.40749 2.21826
394 9.38562 5.12277 -0.00600623
395 12.1083 5.12283 -0.00598396
396 0.926502 16.6861 15.5632
397 0.0513367 15.4015 13.3391
398 2.77402 15.4015 13.3391
399 1.89883 14.1169 11.115
400 4.62156 14.1168 11.115
401 3.74636 12.8324 8.8909
402 6.46909 12.8321 8.89083
403 5.59386 11.5477 6.66663
404 8.31638 11.547 6.66644
405 7.44083 10.2618 4.44227
406 10.1634 10.2618 4.4423
407 9.28818 8.97699 2.21821
408 12.0109 8.97712 2.21818
409 11.1358 7.69238 -0.00596875
410 13.8584 7.69245 -0.0060037
411 0.829288 20.5402 17.7874
412 38.0699 19.2555 15.5633
413 2.6768 19.2555 15.5633
414 1.80166 17.9708 13.3391
415 4.52433 17.9708 13.3392
416 3.64917 16.6861 11.115
417 6.37184 16.686 11.115
418 5.49668 15.4014 8.89077
419 8.21931 15.4012 8.89072
420 7.34413 14.1166 6.66649
421 10.0666 14.1163 6.66645
422 9.19136 12.8315 4.44226
423 11.9139 12.8314 4.44228
424 11.0386 11.5466 2.21815
425 13.7612 11.5467 2.21813
426 12.8861 10.262 -0.00600424
427 15.6086 10.262 -0.00604518
428 0.732054 24.3944 20.0116
429 37.9726 23.1096 17.7875
430 2.57959 23.1096 17.7876
431 1.70444 21.8248 15.5634
432 4.42711 21.8248 15.5634
433 3.55197 20.5401 13.3392
434 6.27463 20.54 13.3393
435 5.39949 19.2553 11.115
436 8.12214 19.2553 11.115
437 7.24698 17.9706 8.89077
438 9.96959 17.9705 8.89074
439 9.0944 16.6858 6.6665
440 11.8169 16.6857 6.66648
441 10.9417 15.401 4.44227
442 13.6642 15.401 4.44228
443 12.789 14.1162 2.21811
444 15.5115 14.1163 2.2181
445 14.6364 12.8315 -0.00605248
446 17.3588 12.8316 -0.0060794
447 0.634753 28.2486 22.2355
448 37.8754 26.9638 20.0116
449 2.48234 26.9638 20.0117
450 1.60721 25.679 17.7877
451 4.3299 25.679 17.7878
452 3.45477 24.3942 15.5636
453 6.17746 24.3942 15.5636
454 5.30233 23.1093 13.3394
455 8.02501 23.1093 13.3394
456 7.14987 21.8246 11.1152
457 9.87252 21.8245 11.1151
458 8.99736 20.5398 8.89085
459 11.72 20.5398 8.89081
460 10.8448 19.2551 6.66655
461 13.5673 19.2551 6.66652
462 12.6921 17.9704 4.44229
463 15.4145 17.9704 4.44228
464 14.5393 16.6857 2.2181
465 17.2618 16.6858 2.21809
466 16.3866 15.4011 -0.00607547
467 19.1091 15.4012 31.1323
468 0.537294 32.1027 24.4583
469 37.7779 30.8181 22.2349
470 2.38505 30.8182 22.2353
471 1.50994 29.5334 20.0115
472 4.23264 29.5334 20.0117
473 3.35754 28.2485 17.7879
474 6.08025 28.2485 17.7879
475 5.20517 26.9635 15.5639
476 7.92787 26.9636 15.5638
477 7.0528 25.6786 13.3397
478 9.77548 25.6787 13.3396
479 8.9004 24.3938 11.1153
480 11.623 24.3939 11.1152
481 10.7479 23.109 8.89096
482 13.4704 23.1092 8.89085
483 12.5952 21.8244 6.66659
484 15.3177 21.8245 6.66654
485 14.4424 20.5398 4.44231
486 17.1649 20.5399 4.44228
487 16.2897 19.2552 2.21809
488 19.0121 19.2553 2.21808
489 18.1369 17.9706 31.1323
490 20.8594 17.9707 31.1323
491 37.6803 34.6726 24.4573
492 2.28766 34.6727 24.458
493 1.41256 33.3878 22.2347
494 4.13536 33.3879 22.2352
495 3.26025 32.103 20.0115
496 5.98295 32.1031 20.0117
497 5.1079 30.8181 17.7879
498 7.83058 30.8182 17.788
499 6.95562 29.5331 15.5641
500 9.67828 29.5332 15.564
501 8.80338 28.248 13.34
502 11.526 28.2482 13.3397
503 10.6511 26.9631 11.1156
504 13.3735 26.9634 11.1153
505 12.4985 25.6784 8.89104
506 15.2208 25.6787 8.89088
507 14.3457 24.3939 6.66661
508 17.068 24.3941 6.66654
509 16.1928 23.1093 4.44231
510 18.9152 23.1095 4.44228
511 18.04 21.8248 2.21808
512 20.7624 21.8249 2.21806
513 19.8872 20.5401 31.1323
514 22.6097 20.5402 31.1323
515 5.01057 34.6728 20.0115
516 7.73323 34.6728 20.0118
517 6.85824 33.3879 17.7879
518 9.58086 33.3879 17.7879
519 8.706 32.1029 15.5642
520 11.4286 32.103 15.5639
521 10.5539 30.8177 13.3401
522 13.2763 30.818 13.3397
523 12.4016 29.5328 11.1156
524 15.1238 29.5331 11.1153
525 14.249 28.248 8.89107
526 16.9711 28.2484 8.89088
527 16.0961 26.9635 6.66662
528 18.8183 26.9637 6.66654
529 17.9432 25.6789 4.4423
530 20.6655 25.6791 4.44227
531 19.7903 24.3943 2.21806
532 22.5126 24.3944 2.21804
533 21.6375 23.1097 31.1322
534 24.3599 23.1098 31.1322
535 10.4563 34.6727 15.5641
536 13.1787 34.6728 15.5638
537 12.3041 33.3877 13.3399
538 15.0263 33.3879 13.3396
539 14.1518 32.1027 11.1155
540 16.8739 32.103 11.1152
541 15.9992 30.8179 8.89104
542 18.7212 30.8181 8.89085
543 17.8463 29.5332 6.66661
544 20.5684 29.5334 6.66653
545 19.6933 28.2486 4.44229
546 22.4156 28.2487 4.44225
547 21.5404 26.9639 2.21804
548 24.2628 26.964 2.218
549 23.3876 25.6792 31.1322
550 26.1101 25.6793 31.1322
551 15.9016 34.6727 11.1153
552 18.6237 34.6728 11.1151
553 17.7491 33.3878 8.89096
554 20.4711 33.3879 8.89079
555 19.5962 32.103 6.66658
556 22.3183 32.1031 6.66648
557 21.4433 30.8183 4.44226
558 24.1655 30.8183 4.44219
559 23.2905 29.5335 2.21799
560 26.0128 29.5336 2.21792
561 25.1377 28.2488 31.1321
562 27.8601 28.2488 31.1321
563 21.346 34.6728 6.66651
564 24.0681 34.6729 6.66643
565 23.1931 33.388 4.4422
566 25.9152 33.388 4.44213
567 25.0403 32.1032 2.21789
568 27.7626 32.1032 2.2178
569 26.8876 30.8184 31.132
570 29.61 30.8184 31.1319
571 26.7899 34.673 2.21776
572 29.5118 34.673 2.21754
573 28.6373 33.3881 31.1318
574 31.3594 33.388 31.1313
575 1.31602 1.26813 11.1172
576 0.441687 -0.0156199 8.89348
577 3.16563 35.9562 8.89256
578 1.21815 5.12327 13.34
579 0.342837 3.83834 11.1162
580 3.06611 3.83862 11.1177
581 2.19054 2.55278 8.89531
582 4.91695 2.5541 8.89771
583 4.04419 1.27374 6.67546
584 6.76641 1.26576 6.67132
585 5.9195 35.9477 4.44571
586 8.62081 35.9546 4.44353
587 1.12092 8.97787 15.5634
588 0.245628 7.69324 13.3397
589 2.96863 7.69354 13.3404
590 2.09329 6.40955 11.1178
591 4.81733 6.41001 11.119
592 3.94418 5.1287 8.90138
593 6.66493 5.1239 8.89272
594 5.79141 3.83893 6.66931
595 8.51267 3.83788 6.66788
596 7.64253 2.55257 4.44369
597 10.3618 2.5531 4.44287
598 9.48551 1.26758 2.21803
599 12.2072 1.26811 2.21811
600 11.3315 35.9573 31.1322
601 14.0538 35.9575 31.1322
602 1.02368 12.8321 17.7872
603 0.148526 11.5473 15.5632
604 2.87127 11.5474 15.5633
605 1.99609 10.2628 13.3395
606 4.71894 10.2629 13.3396
607 3.84384 8.97856 11.116
608 6.56679 8.97839 11.1158
609 5.69201 7.69442 8.8922
610 8.41416 7.69302 8.89121
611 7.53906 6.40798 6.66713
612 10.2615 6.40776 6.66688
613 9.38596 5.12302 4.44275
614 12.1089 5.12303 4.44253
615 11.2336 3.83802 2.21824
616 13.9562 3.83812 2.21817
617 13.081 2.55321 -0.00604826
618 15.8034 2.5533 -0.00608017
619 0.926464 16.6862 20.0114
620 0.0513248 15.4015 17.7872
621 2.774 15.4015 17.7873
622 1.89886 14.1168 15.5632
623 4.62156 14.1168 15.5633
624 3.74643 12.8322 13.3392
625 6.46914 12.8321 13.3392
626 5.59404 11.5476 11.1152
627 8.31669 11.5473 11.1151
628 7.44157 10.2627 8.89091
629 10.164 10.2623 8.89077
630 9.28871 8.97734 6.66657
631 12.0113 8.97727 6.66657
632 11.1358 7.69242 4.44242
633 13.8585 7.69251 4.44237
634 12.9834 6.40767 2.2182
635 15.7059 6.40775 2.21815
636 14.8308 5.12291 -0.0060207
637 17.5533 5.12298 -0.00608586
638 0.829258 20.5404 22.2356
639 38.0698 19.2556 20.0115
640 2.67677 19.2556 20.0115
641 1.80164 17.9709 17.7874
642 4.5243 17.9709 17.7874
643 3.64917 16.6862 15.5633
644 6.37182 16.6861 15.5633
645 5.49671 15.4014 13.3392
646 8.21934 15.4013 13.3391
647 7.34423 14.1167 11.115
648 10.0668 14.1165 11.1149
649 9.19165 12.8318 8.89069
650 11.9141 12.8316 8.89067
651 11.0389 11.5468 6.66646
652 13.7614 11.5468 6.66648
653 12.8861 10.262 4.44231
654 15.6087 10.262 4.44231
655 14.7335 8.97724 2.21815
656 17.456 8.97733 2.21811
657 16.5809 7.69252 -0.00605364
658 19.3033 7.69261 31.1323
659 0.73201 24.3945 24.4598
660 37.9726 23.1097 22.2357
661 2.57954 23.1098 22.2357
662 1.70442 21.825 20.0116
663 4.42707 21.825 20.0116
664 3.55194 20.5402 17.7875
665 6.27458 20.5402 17.7875
666 5.39946 19.2555 15.5633
667 8.12209 19.2554 15.5633
668 7.24697 17.9707 13.3392
669 9.96957 17.9706 13.3391
670 9.09445 16.6859 11.1149
671 11.817 16.6858 11.1149
672 10.9419 15.4011 8.89068
673 13.6644 15.401 8.89067
674 12.7892 14.1162 6.66646
675 15.5116 14.1163 6.66647
676 14.6364 12.8315 4.44229
677 17.3589 12.8316 4.44228
678 16.4837 11.5468 2.21811
679 19.2062 11.5469 2.21807
680 18.3311 10.2621 -0.00609075
681 21.0535 10.2622 31.1322
682 0.634745 28.2487 26.6837
683 37.8753 26.9639 24.4597
684 2.48228 26.964 24.4598
685 1.60717 25.6792 22.2357
686 4.32982 25.6792 22.2358
687 3.45471 24.3944 20.0117
688 6.17735 24.3944 20.0117
689 5.30224 23.1096 17.7876
690 8.02488 23.1096 17.7876
691 7.14977 21.8248 15.5635
692 9.87238 21.8248 15.5634
693 8.99727 20.54 13.3392
694 11.7198 20.54 13.3392
695 10.8447 19.2552 11.115
696 13.5673 19.2552 11.1149
697 12.6921 17.9704 8.89071
698 15.4146 17.9705 8.89068
699 14.5394 16.6857 6.66648
700 17.2619 16.6858 6.66646
701 16.3867 15.401 4.44228
702 19.1092 15.4011 4.44226
703 18.234 14.1164 2.21808
704 20.9564 14.1165 2.21806
705 20.0813 12.8317 31.1323
706 22.8037 12.8318 31.1322
707 0.537215 32.1026 28.9061
708 37.7778 30.8179 26.6827
709 2.38507 30.8181 26.6833
710 1.50988 29.5334 24.4594
711 4.23259 29.5335 24.4597
712 3.35745 28.2487 22.2357
713 6.08009 28.2488 22.2358
714 5.20501 26.9639 20.0118
715 7.92763 26.9639 20.0118
716 7.05256 25.679 17.7878
717 9.77518 25.6791 17.7877
718 8.90012 24.3942 15.5636
719 11.6227 24.3942 15.5635
720 10.7476 23.1094 13.3393
721 13.4702 23.1094 13.3392
722 12.5951 21.8246 11.115
723 15.3176 21.8247 11.115
724 14.4425 20.5399 8.89074
725 17.1649 20.54 8.89069
726 16.2898 19.2552 6.66649
727 19.0122 19.2553 6.66646
728 18.137 17.9705 4.44227
729 20.8595 17.9707 4.44225
730 19.9843 16.6859 2.21807
731 22.7067 16.686 2.21805
732 21.8316 15.4013 31.1322
733 24.554 15.4014 31.1322
734 37.6776 34.6699 28.8988
735 2.28782 34.6723 28.9038
736 1.41243 33.3873 26.6813
737 4.13545 33.3879 26.683
738 3.26021 32.103 24.4591
739 5.98288 32.1031 24.4596
740 5.10775 30.8183 22.2356
741 7.83036 30.8184 22.2358
742 6.9553 29.5335 20.0118
743 9.6779 29.5335 20.0119
744 8.80289 28.2486 17.7879
745 11.5255 28.2487 17.7878
746 10.6505 26.9637 15.5637
747 13.373 26.9638 15.5636
748 12.498 25.6788 13.3394
749 15.2205 25.679 13.3393
750 14.3455 24.3941 11.1151
751 17.0679 24.3942 11.115
752 16.1928 23.1093 8.89077
753 18.9152 23.1095 8.8907
754 18.0401 21.8247 6.66649
755 20.7625 21.8248 6.66646
756 19.8873 20.5401 4.44226
757 22.6097 20.5402 4.44225
758 21.7346 19.2555 2.21806
759 24.457 19.2556 2.21804
760 23.5818 17.9708 31.1322
761 26.3043 17.9709 31.1322
762 5.01051 34.6728 24.459
763 7.73311 34.6728 24.4597
764 6.85802 33.388 22.2356
765 9.58059 33.388 22.2358
766 8.70557 32.1032 20.0119
767 11.4281 32.1032 20.0118
768 10.5532 30.8183 17.7879
769 13.2757 30.8183 17.7878
770 12.4008 29.5333 15.5638
771 15.1233 29.5334 15.5636
772 14.2484 28.2485 13.3395
773 16.9707 28.2486 13.3393
774 16.0958 26.9637 11.1151
775 18.8181 26.9638 11.115
776 17.9431 25.6789 8.89077
777 20.6655 25.6791 8.89071
778 19.7904 24.3943 6.6665
779 22.5127 24.3944 6.66646
780 21.6376 23.1096 4.44226
781 24.36 23.1097 4.44224
782 23.4848 21.825 2.21805
783 26.2073 21.8251 2.21803
784 25.3321 20.5403 31.1322
785 28.0546 20.5404 31.1322
786 10.4558 34.6729 20.0119
787 13.1783 34.6729 20.0118
788 12.3034 33.388 17.7878
789 15.0259 33.388 17.7877
790 14.151 32.1031 15.5637
791 16.8734 32.1032 15.5635
792 15.9986 30.8182 13.3394
793 18.7209 30.8183 13.3392
794 17.846 29.5334 11.1151
795 20.5683 29.5335 11.115
796 19.6933 28.2486 8.89077
797 22.4156 28.2487 8.89069
798 21.5406 26.9639 6.66649
799 24.2629 26.964 6.66643
800 23.3878 25.6792 4.44224
801 26.1102 25.6793 4.4422
802 25.235 24.3945 2.21802
803 27.9575 24.3946 2.218
804 27.0824 23.1098 31.1322
805 29.8049 23.1099 31.1322
806 15.9011 34.6728 15.5636
807 18.6234 34.6729 15.5634
808 17.7486 33.388 13.3393
809 20.4709 33.388 13.3391
810 19.5961 32.1031 11.115
811 22.3183 32.1032 11.1149
812 21.4434 30.8183 8.89073
813 24.1656 30.8184 8.89065
814 23.2906 29.5335 6.66645
815 26.0129 29.5336 6.66641
816 25.1379 28.2488 4.44219
817 27.8603 28.2488 4.44217
818 26.9852 26.9641 2.21796
819 29.7077 26.9641 2.21797
820 28.8325 25.6793 31.1322
821 31.555 25.6794 31.1322
822 21.346 34.6728 11.1149
823 24.0683 34.6729 11.1148
824 23.1933 33.388 8.89067
825 25.9156 33.3881 8.89062
826 25.0405 32.1032 6.66641
827 27.7628 32.1032 6.66642
828 26.8878 30.8184 4.44214
829 29.6101 30.8183 4.44215
830 28.7352 29.5336 2.21789
831 31.4577 29.5335 2.21785
832 30.5826 28.2488 31.1321
833 33.3051 28.2488 31.1321
834 26.7902 34.6729 6.66641
835 29.5123 34.673 6.66648
836 28.6372 33.388 4.44209
837 31.359 33.3877 4.44205
838 30.4848 32.1031 2.21765
839 33.2071 32.1029 2.21727
840 32.3323 30.8183 31.1317
841 35.0547 30.8179 31.1315
842 32.2333 34.6729 2.21702
843 34.9545 34.6724 2.21538
844 34.0814 33.3879 31.1303
845 36.8025 33.3852 31.126
846 1.31557 1.26839 15.5637
847 0.440524 35.9575 13.3402
848 3.16352 35.9573 13.3407
849 1.21818 5.1232 17.7871
850 0.343068 3.83825 15.5634
851 3.06589 3.83828 15.5638
852 2.19086 2.55329 13.3404
853 4.91382 2.55326 13.3407
854 4.03908 1.26782 11.1175
855 6.76266 1.26823 11.118
856 5.8895 35.9566 8.89616
857 8.61144 35.9564 8.89354
858 1.12088 8.97788 20.0108
859 0.245746 7.69293 17.787
860 2.96852 7.69299 17.7872
861 2.09337 6.40813 15.5636
862 4.81625 6.4082 15.5639
863 3.94121 5.12344 13.3407
864 6.66431 5.1235 13.3409
865 5.79006 3.8389 11.1185
866 8.51215 3.83838 11.1165
867 7.63834 2.55324 8.89329
868 10.3601 2.55306 8.89197
869 9.48712 1.26742 6.66838
870 12.2081 1.26802 6.66732
871 11.3359 35.9565 4.44282
872 14.0556 35.9572 4.44253
873 1.02361 12.8322 22.2352
874 0.148486 11.5474 20.011
875 2.87121 11.5474 20.0111
876 1.99608 10.2626 17.7872
877 4.71884 10.2626 17.7874
878 3.84376 8.97799 15.5637
879 6.56656 8.97794 15.5638
880 5.69173 7.69359 13.3407
881 8.4142 7.69303 13.3397
882 7.53942 6.40844 11.1161
883 10.2617 6.40799 11.1155
884 9.38699 5.12315 8.89163
885 12.1092 5.12298 8.89119
886 11.2346 3.83808 6.66717
887 13.9567 3.83813 6.66683
888 13.0826 2.55323 4.44257
889 15.8042 2.5533 4.44242
890 14.9291 1.26835 2.21811
891 17.6512 1.26847 2.21808
892 16.776 35.9577 31.1322
893 19.4983 35.9578 31.1322
894 0.92642 16.6864 24.4596
895 0.0512721 15.4016 22.2354
896 2.77395 15.4016 22.2354
897 1.89882 14.1169 20.0113
898 4.6215 14.1168 20.0114
899 3.7464 12.8321 17.7873
900 6.46908 12.8321 17.7874
901 5.59401 11.5474 15.5634
902 8.31667 11.5473 15.5634
903 7.44169 10.2627 13.3395
904 10.1642 10.2624 13.3393
905 9.28917 8.97771 11.1152
906 12.0116 8.97745 11.1151
907 11.1365 7.69265 8.89096
908 13.8589 7.69256 8.89084
909 12.9839 6.40777 6.66671
910 15.7063 6.40778 6.6666
911 14.8313 5.12301 4.44241
912 17.5536 5.12302 4.44234
913 16.6785 3.83817 2.21812
914 19.4008 3.83823 2.21806
915 18.5258 2.55337 31.1322
916 21.248 2.55342 31.1322
917 0.829219 20.5405 26.6839
918 38.0698 19.2557 24.4597
919 2.67673 19.2557 24.4597
920 1.8016 17.971 22.2356
921 4.52425 17.971 22.2356
922 3.64913 16.6862 20.0114
923 6.37178 16.6862 20.0115
924 5.49667 15.4015 17.7874
925 8.2193 15.4014 17.7874
926 7.34422 14.1167 15.5633
927 10.0668 14.1166 15.5633
928 9.19175 12.8319 13.3392
929 11.9142 12.8317 13.3391
930 11.0392 11.547 11.1149
931 13.7616 11.5469 11.1149
932 12.8865 10.2621 8.89073
933 15.6089 10.2621 8.89071
934 14.7338 8.97729 6.66654
935 17.4562 8.97733 6.66651
936 16.5811 7.69256 4.44233
937 19.3035 7.69262 4.44228
938 18.4284 6.40782 2.21809
939 21.1507 6.4079 2.21803
940 20.2757 5.12305 31.1322
941 22.9979 5.12314 31.1321
942 0.732017 24.3946 28.9081
943 37.9726 23.1099 26.6839
944 2.5795 23.1098 26.6839
945 1.70437 21.8251 24.4598
946 4.42701 21.8251 24.4598
947 3.5519 20.5404 22.2357
948 6.27453 20.5403 22.2357
949 5.39942 19.2556 20.0116
950 8.12203 19.2556 20.0116
951 7.24693 17.9708 17.7874
952 9.96952 17.9708 17.7874
953 9.09444 16.686 15.5633
954 11.817 16.686 15.5633
955 10.9419 15.4012 13.3391
956 13.6644 15.4011 13.3391
957 12.7893 14.1164 11.1149
958 15.5118 14.1163 11.1149
959 14.6366 12.8316 8.89068
960 17.3591 12.8316 8.89066
961 16.4839 11.5468 6.66648
962 19.2063 11.5469 6.66647
963 18.3312 10.2621 4.44228
964 21.0536 10.2622 4.44225
965 20.1784 8.97742 2.21806
966 22.9008 8.97754 2.218
967 22.0257 7.69271 31.1322
968 24.748 7.69286 31.1321
969 37.8754 26.964 28.908
970 2.48234 26.9639 28.908
971 1.60714 25.6793 26.6839
972 4.3298 25.6792 26.6839
973 3.45465 24.3945 24.4598
974 6.17728 24.3945 24.4599
975 5.30217 23.1098 22.2358
976 8.02479 23.1098 22.2358
977 7.14969 21.825 20.0117
978 9.87229 21.825 20.0117
979 8.99719 20.5402 17.7875
980 11.7198 20.5402 17.7875
981 10.8447 19.2554 15.5633
982 13.5672 19.2554 15.5633
983 12.6921 17.9706 13.3391
984 15.4146 17.9706 13.339
985 14.5395 16.6858 11.1149
986 17.262 16.6858 11.1148
987 16.3868 15.401 8.89066
988 19.1093 15.4011 8.89064
989 18.2341 14.1163 6.66646
990 20.9566 14.1164 6.66644
991 20.0814 12.8317 4.44226
992 22.8038 12.8318 4.44223
993 21.9286 11.547 2.21804
994 24.651 11.5472 2.21798
995 23.7758 10.2624 31.1322
996 26.4982 10.2626 31.132
997 1.50992 29.5334 28.9078
998 4.23269 29.5333 28.9079
999 3.35745 28.2487 26.6838
1000 6.08012 28.2487 26.6839
1001 5.20493 26.964 24.4598
1002 7.92756 26.964 24.4599
1003 7.05244 25.6792 22.2358
1004 9.77504 25.6792 22.2358
1005 8.89996 24.3944 20.0117
1006 11.6225 24.3944 20.0117
1007 10.7475 23.1096 17.7876
1008 13.47 23.1096 17.7875
1009 12.5949 21.8248 15.5634
1010 15.3174 21.8249 15.5633
1011 14.4424 20.54 13.3391
1012 17.1649 20.5401 13.339
1013 16.2898 19.2553 11.1149
1014 19.0122 19.2553 11.1148
1015 18.1371 17.9705 8.89065
1016 20.8595 17.9706 8.89063
1017 19.9844 16.6859 6.66645
1018 22.7068 16.686 6.66643
1019 21.8316 15.4012 4.44224
1020 24.554 15.4014 4.44222
1021 23.6789 14.1166 2.21802
1022 26.4013 14.1168 2.21797
1023 25.5261 12.832 31.1321
1024 28.2485 12.8322 31.132
1025 3.26034 32.1029 28.9073
1026 5.98301 32.1029 28.9079
1027 5.10777 30.8182 26.6837
1028 7.83041 30.8183 26.6839
1029 6.95522 29.5336 24.4598
1030 9.67781 29.5336 24.4599
1031 8.8027 28.2488 22.2358
1032 11.5253 28.2488 22.2358
1033 10.6502 26.964 20.0118
1034 13.3728 26.964 20.0117
1035 12.4977 25.6791 17.7876
1036 15.2203 25.6792 17.7875
1037 14.3452 24.3943 15.5634
1038 17.0677 24.3944 15.5633
1039 16.1927 23.1095 13.3391
1040 18.9151 23.1096 13.3391
1041 18.04 21.8248 11.1149
1042 20.7625 21.8249 11.1148
1043 19.8874 20.5401 8.89065
1044 22.6098 20.5402 8.89063
1045 21.7346 19.2554 6.66644
1046 24.4571 19.2555 6.66643
1047 23.5819 17.9708 4.44224
1048 26.3044 17.9709 4.44222
1049 25.4292 16.6862 2.21802
1050 28.1516 16.6863 2.21799
1051 27.2764 15.4015 31.1322
1052 29.9989 15.4017 31.1321
1053 5.01045 34.6728 28.9075
1054 7.73318 34.6727 28.908
1055 6.85802 33.3879 26.6838
1056 9.58062 33.388 26.684
1057 8.70546 32.1032 24.4599
1058 11.428 32.1032 24.4599
1059 10.5529 30.8184 22.2359
1060 13.2755 30.8184 22.2358
1061 12.4005 29.5336 20.0118
1062 15.123 29.5336 20.0117
1063 14.248 28.2487 17.7876
1064 16.9704 28.2488 17.7875
1065 16.0955 26.9639 15.5634
1066 18.8179 26.964 15.5633
1067 17.9429 25.6791 13.3391
1068 20.6653 25.6792 13.3391
1069 19.7903 24.3943 11.1149