ITEM: TIMESTEP
418
ITEM: NUMBER OF ATOMS
1373
ITEM: BOX BOUNDS pp pp pp
-1.1916152910065329e-03 3.1127391484379064e+01
-1.1601457326951043e-03 2.2010707145732699e+01
-1.1913193304614578e-03 3.1127391188418535e+01
ITEM: ATOMS id x y z
1 -0.000182281 20.4356 2.22329
2 2.2251 20.424 31.1017
3 31.1252 20.4273 6.67995
4 2.25048 20.3203 4.47395
5 4.45648 20.4273 2.2201
6 6.67397 20.4365 31.124
7 31.1263 20.4382 11.1179
8 2.22199 20.4376 8.89541
9 4.44747 20.4344 6.67094
10 6.67194 20.4376 4.44546
11 8.89445 20.4382 2.22121
12 11.1176 20.4383 31.1264
13 31.127 20.4384 15.5637
14 2.22192 20.4384 13.3404
15 4.44572 20.4384 11.1169
16 6.6696 20.4382 8.89308
17 8.89342 20.4384 6.66919
18 11.1169 20.4384 4.44539
19 13.3402 20.4384 2.22186
20 15.5635 20.4384 31.127
21 31.1273 20.4384 20.0097
22 2.2222 20.4384 17.7864
23 4.44571 20.4384 15.5632
24 6.66924 20.4384 13.3398
25 8.89278 20.4385 11.1163
26 11.1163 20.4384 8.89271
27 13.3397 20.4384 6.66918
28 15.563 20.4384 4.44567
29 17.7862 20.4384 2.22214
30 20.0096 20.4384 31.1272
31 -0.00118415 20.4382 24.4553
32 2.22249 20.4383 22.2322
33 4.44599 20.4384 20.0092
34 6.66943 20.4384 17.7861
35 8.8928 20.4384 15.5629
36 11.1161 20.4385 13.3396
37 13.3394 20.4384 11.1163
38 15.5626 20.4384 8.8929
39 17.7857 20.4384 6.66946
40 20.0087 20.4383 4.44596
41 22.2319 20.4382 2.22229
42 24.4559 20.4383 31.1271
43 31.1267 20.4374 28.8993
44 2.22303 20.4377 26.6765
45 4.44667 20.4381 24.4544
46 6.66994 20.4383 22.232
47 8.89317 20.4384 20.0092
48 11.1164 20.4384 17.7862
49 13.3396 20.4384 15.5631
50 15.5627 20.4384 13.3399
51 17.7858 20.4384 11.1166
52 20.0085 20.4383 8.89341
53 22.231 20.4381 6.67014
54 24.453 20.4377 4.4465
55 26.6758 20.4374 2.22162
56 28.9043 20.4384 -0.000857359
57 4.44957 20.4362 28.8959
58 6.67142 20.4379 26.6771
59 8.89396 20.4383 24.4553
60 11.1169 20.4384 22.2326
61 13.34 20.4384 20.0097
62 15.5631 20.4384 17.7866
63 17.7862 20.4384 15.5635
64 20.0091 20.4384 13.3404
65 22.2318 20.4383 11.1174
66 24.4536 20.4379 8.89489
67 26.6725 20.4362 6.67305
68 28.8782 20.424 4.44857
69 8.89513 20.438 28.9018
70 11.1176 20.4383 26.6792
71 13.3405 20.4384 24.4563
72 15.5635 20.4384 22.2332
73 17.7867 20.4384 20.0101
74 20.0098 20.4384 17.787
75 22.2328 20.4384 15.5639
76 24.4557 20.4383 13.341
77 26.6783 20.438 11.1186
78 28.9005 20.4365 8.89744
79 13.3406 20.4384 28.9032
80 15.5637 20.4384 26.68
81 17.787 20.4384 24.4568
82 20.0102 20.4384 22.2337
83 22.2334 20.4384 20.0104
84 24.4565 20.4384 17.7872
85 26.6797 20.4384 15.5641
86 28.9029 20.4383 13.341
87 17.7868 20.4384 28.9036
88 20.0103 20.4384 26.6804
89 22.2336 20.4384 24.4571
90 24.4569 20.4384 22.2337
91 26.6802 20.4384 20.0103
92 28.9035 20.4384 17.787
93 22.2334 20.4384 28.9038
94 24.457 20.4384 26.6805
95 26.6803 20.4384 24.4568
96 28.9038 20.4384 22.2331
97 26.6804 20.4384 28.9039
98 28.9036 20.4383 26.6794
99 -0.000814613 17.2919 2.22266
100 31.1269 18.8644 31.1253
101 2.22348 17.2882 31.1217
102 31.125 17.288 6.67205
103 31.1148 18.8576 4.44942
104 2.22354 17.2764 4.44702
105 2.22595 18.8576 2.20969
106 4.44858 17.288 2.21992
107 4.45016 18.863 31.1222
108 6.67188 17.2917 31.1251
109 31.1262 17.2919 11.1197
110 31.125 18.8618 8.89931
111 2.2221 17.2873 8.90094
112 2.22318 18.8466 6.69096
113 4.44859 17.2878 6.67206
114 4.46749 18.8466 4.44665
115 6.67747 17.2873 4.44558
116 6.67584 18.8618 2.21985
117 8.89626 17.2919 2.22104
118 8.89556 18.865 31.1256
119 11.118 17.2933 31.1263
120 31.127 17.2937 15.564
121 31.1267 18.8659 13.341
122 2.22206 17.2934 13.3411
123 2.22203 18.8653 11.1182
124 4.44635 17.2926 11.1185
125 4.44748 18.8638 8.89613
126 6.6706 17.2924 8.89407
127 6.67266 18.8638 6.67095
128 8.895 17.2926 6.66982
129 8.89478 18.8653 4.4455
130 11.1176 17.2934 4.44553
131 11.1175 18.8659 2.22161
132 13.3405 17.2937 2.22185
133 13.3405 18.866 31.1268
134 15.5636 17.2938 31.127
135 31.1273 17.2938 20.0098
136 31.1271 18.8661 17.7868
137 2.22222 17.2938 17.7866
138 2.22209 18.8661 15.5635
139 4.44583 17.2938 15.5635
140 4.44579 18.866 13.3403
141 6.66956 17.2937 13.3402
142 6.66975 18.8658 11.1169
143 8.89321 17.2936 11.1167
144 8.89347 18.8658 8.89322
145 11.1168 17.2937 8.89303
146 11.1168 18.866 6.66926
147 13.34 17.2938 6.6693
148 13.3401 18.8661 4.44556
149 15.5631 17.2938 4.44569
150 15.5633 18.8661 2.22203
151 17.7863 17.2938 2.22214
152 17.7866 18.8661 31.1271
153 20.0097 17.2937 31.1272
154 31.1273 17.2933 24.4555
155 31.1273 18.866 22.2327
156 2.22247 17.2936 22.2323
157 2.22233 18.8661 20.0094
158 4.44603 17.2937 20.0093
159 4.44586 18.8661 17.7863
160 6.6695 17.2938 17.7863
161 6.66936 18.8661 15.5631
162 8.89295 17.2938 15.5631
163 8.89287 18.8661 13.3398
164 11.1163 17.2938 13.3398
165 11.1163 18.8661 11.1163
166 13.3396 17.2938 11.1164
167 13.3396 18.8661 8.89284
168 15.5628 17.2938 8.89298
169 15.5628 18.8661 6.66933
170 17.7859 17.2937 6.6695
171 17.786 18.8661 4.4458
172 20.0089 17.2936 4.44594
173 20.0092 18.866 2.22223
174 22.232 17.2933 2.2222
175 22.2328 18.866 31.1272
176 24.4563 17.2936 31.1272
177 31.1272 17.2927 28.902
178 31.1272 18.8652 26.6777
179 2.22281 17.2917 26.6765
180 2.22266 18.8656 24.4548
181 4.44658 17.2931 24.4547
182 4.44624 18.8659 22.232
183 6.66992 17.2936 22.2322
184 6.66964 18.8661 20.0092
185 8.89321 17.2938 20.0094
186 8.89298 18.8661 17.7862
187 11.1165 17.2939 17.7863
188 11.1163 18.8662 15.563
189 13.3397 17.2939 15.5632
190 13.3395 18.8662 13.3398
191 15.5629 17.2939 13.3399
192 15.5627 18.8661 11.1165
193 17.7859 17.2938 11.1167
194 17.7857 18.8661 8.89311
195 20.0087 17.2936 8.89339
196 20.0086 18.8659 6.66971
197 22.2312 17.2931 6.67006
198 22.2313 18.8656 4.44613
199 24.453 17.2917 4.44628
200 24.4542 18.8652 2.22204
201 26.6785 17.2927 2.22213
202 26.6799 18.8658 31.1271
203 28.9036 17.2931 31.127
204 2.22335 18.8607 28.8946
205 4.44763 17.2919 28.9005
206 4.4474 18.8646 26.6762
207 6.67074 17.2931 26.6783
208 6.67042 18.8657 24.4548
209 8.89376 17.2936 24.4556
210 8.89348 18.866 22.2323
211 11.1169 17.2938 22.2328
212 11.1166 18.8661 20.0095
213 13.34 17.2938 20.0097
214 13.3398 18.8661 17.7864
215 15.5632 17.2939 17.7866
216 15.5629 18.8661 15.5633
217 17.7863 17.2938 15.5635
218 17.786 18.8661 13.3401
219 20.0093 17.2938 13.3403
220 20.0089 18.866 11.117
221 22.2321 17.2936 11.1172
222 22.2314 18.8657 8.89389
223 24.4548 17.2931 8.89421
224 24.4527 18.8646 6.67087
225 26.677 17.2919 6.6711
226 26.6711 18.8607 4.44682
227 28.8982 17.2882 4.44695
228 28.9018 18.8644 2.22174
229 6.67191 18.865 28.9009
230 8.89454 17.2931 28.9022
231 8.89434 18.8657 26.6786
232 11.1174 17.2936 26.6793
233 11.1172 18.866 24.4559
234 13.3404 17.2938 24.4563
235 13.3402 18.8661 22.233
236 15.5635 17.2938 22.2333
237 15.5634 18.8661 20.0099
238 17.7867 17.2939 20.0102
239 17.7865 18.8661 17.7868
240 20.0098 17.2938 17.787
241 20.0095 18.8661 15.5637
242 22.2329 17.2938 15.5639
243 22.2324 18.866 13.3406
244 24.4559 17.2936 13.3409
245 24.4552 18.8657 11.1178
246 26.6788 17.2931 11.118
247 26.6774 18.865 8.89538
248 28.9017 17.2917 8.89535
249 28.8988 18.863 6.67363
250 11.1178 18.8658 28.9027
251 13.3407 17.2937 28.9032
252 13.3406 18.866 26.6797
253 15.5638 17.2938 26.68
254 15.5637 18.8661 24.4566
255 17.787 17.2938 24.4568
256 17.7869 18.8661 22.2335
257 20.0102 17.2939 22.2337
258 20.01 18.8661 20.0103
259 22.2334 17.2938 20.0105
260 22.2331 18.8661 17.7872
261 24.4565 17.2938 17.7873
262 24.4562 18.866 15.5641
263 26.6797 17.2937 15.5642
264 26.6792 18.8658 13.3412
265 28.9029 17.2933 13.3414
266 28.9021 18.865 11.119
267 15.5637 18.8661 28.9035
268 17.7869 17.2938 28.9036
269 17.787 18.8661 26.6802
270 20.0103 17.2938 26.6804
271 20.0103 18.8661 24.457
272 22.2336 17.2939 24.4571
273 22.2335 18.8661 22.2338
274 24.4569 17.2938 22.2338
275 24.4567 18.8661 20.0105
276 26.6802 17.2938 20.0104
277 26.68 18.8661 17.7872
278 28.9035 17.2938 17.7871
279 28.9033 18.866 15.564
280 20.0101 18.8661 28.9037
281 22.2334 17.2938 28.9038
282 22.2336 18.8661 26.6805
283 24.457 17.2938 26.6805
284 24.457 18.8661 24.4571
285 26.6804 17.2938 24.4569
286 26.6803 18.8661 22.2335
287 28.9037 17.2937 22.2332
288 28.9037 18.8661 20.0101
289 24.4568 18.8661 28.9038
290 26.6803 17.2936 28.9037
291 26.6804 18.8661 26.6803
292 28.9037 17.2936 26.6798
293 28.9037 18.866 24.4563
294 28.9036 18.8658 28.9033
295 31.127 14.1479 2.22189
296 31.1272 15.7204 31.1266
297 2.22276 14.1473 31.1255
298 31.1262 14.1468 6.67055
299 31.125 15.717 4.44647
300 2.22246 14.1447 4.44593
301 2.223 15.717 2.21993
302 4.44707 14.1468 2.22109
303 4.44749 15.7192 31.125
304 6.67082 14.1481 31.1259
305 31.1266 14.1482 11.1182
306 31.1261 15.7189 8.8953
307 2.22216 14.1466 8.89546
308 2.22253 15.7145 6.67296
309 4.44706 14.1464 6.67053
310 4.44949 15.7145 4.446
311 6.67199 14.1466 4.44563
312 6.67183 15.7189 2.22101
313 8.89471 14.1482 2.22144
314 8.89463 15.7206 31.126
315 11.1176 14.1489 31.1265
316 31.1269 14.149 15.5643
317 31.1267 15.7208 13.3416
318 2.22208 14.1486 13.3415
319 2.22205 15.7193 11.1197
320 4.44615 14.1484 11.1178
321 4.44668 15.7192 8.89497
322 6.67028 14.1483 8.89375
323 6.6715 15.7192 6.67015
324 8.89436 14.1484 6.66962
325 8.89627 15.7193 4.44552
326 11.118 14.1486 4.44555
327 11.1182 15.7208 2.22157
328 13.3408 14.149 2.22183
329 13.3408 15.7213 31.1267
330 15.5638 14.1492 31.127
331 31.1272 14.1492 20.01
332 31.1271 15.7215 17.787
333 2.22223 14.1492 17.7869
334 2.22214 15.7214 15.5639
335 4.44591 14.1491 15.5638
336 4.44598 15.7211 13.341
337 6.66963 14.1491 13.3404
338 6.66989 15.7209 11.1173
339 8.89332 14.1491 11.1168
340 8.89378 15.7209 8.89336
341 11.1169 14.1491 8.8931
342 11.1175 15.7211 6.66945
343 13.3403 14.1491 6.66938
344 13.3405 15.7214 4.44561
345 15.5634 14.1492 4.44571
346 15.5635 15.7215 2.22201
347 17.7865 14.1492 2.22213
348 17.7867 15.7215 31.1271
349 20.01 14.1492 31.1272
350 31.1274 14.149 24.4561
351 31.1273 15.7213 22.2328
352 2.22245 14.149 22.2326
353 2.22234 15.7215 20.0096
354 4.44605 14.1492 20.0095
355 4.44592 15.7215 17.7865
356 6.66957 14.1492 17.7865
357 6.66951 15.7215 15.5634
358 8.89304 14.1493 15.5633
359 8.89306 15.7215 13.34
360 11.1165 14.1493 13.3399
361 11.1166 15.7215 11.1165
362 13.3398 14.1493 11.1165
363 13.3399 15.7215 8.89298
364 15.563 14.1492 8.89304
365 15.5631 15.7215 6.66939
366 17.7861 14.1492 6.66952
367 17.7861 15.7215 4.44581
368 20.0091 14.149 4.44592
369 20.0094 15.7213 2.22221
370 22.2327 14.149 2.22226
371 22.2331 15.7214 31.1273
372 24.4565 14.1491 31.1273
373 31.1273 14.1487 28.9029
374 31.1273 15.7209 26.6791
375 2.22264 14.1483 26.6785
376 2.22259 15.7208 24.4551
377 4.44638 14.1488 24.4555
378 4.44622 15.7212 22.2323
379 6.66985 14.1491 22.2326
380 6.66968 15.7215 20.0094
381 8.89322 14.1493 20.0096
382 8.89307 15.7215 17.7863
383 11.1165 14.1493 17.7865
384 11.1164 15.7216 15.5632
385 13.3398 14.1493 15.5632
386 13.3397 15.7216 13.3399
387 15.563 14.1493 13.34
388 15.5629 15.7215 11.1165
389 17.7861 14.1493 11.1167
390 17.7859 15.7215 8.89315
391 20.0091 14.1491 8.89333
392 20.0088 15.7212 6.6697
393 22.232 14.1488 6.66985
394 22.2316 15.7208 4.44606
395 24.4551 14.1483 4.44611
396 24.4556 15.7209 2.22223
397 26.6795 14.1487 2.22221
398 26.68 15.7212 31.1272
399 28.9035 14.1488 31.127
400 2.22285 15.719 28.9007
401 4.44681 14.1482 28.902
402 4.44676 15.7205 26.6782
403 6.67031 14.1488 26.6789
404 6.67016 15.7211 24.4555
405 8.89361 14.1491 24.4559
406 8.89342 15.7214 22.2326
407 11.1168 14.1492 22.2329
408 11.1167 15.7215 20.0096
409 13.34 14.1493 20.0098
410 13.3399 15.7216 17.7865
411 15.5632 14.1493 17.7867
412 15.563 15.7216 15.5633
413 17.7864 14.1493 15.5635
414 17.7861 15.7215 13.3401
415 20.0094 14.1492 13.3403
416 20.0091 15.7214 11.1169
417 22.2324 14.1491 11.1171
418 22.232 15.7211 8.89363
419 24.4554 14.1488 8.89378
420 24.4547 15.7205 6.67023
421 26.6785 14.1482 6.67028
422 26.6773 15.719 4.44632
423 28.902 14.1473 4.44623
424 28.9031 15.7204 2.2221
425 6.67084 15.7205 28.902
426 8.89407 14.1488 28.9026
427 8.89396 15.7211 26.6791
428 11.1172 14.1491 26.6795
429 11.1171 15.7214 24.4561
430 13.3404 14.1492 24.4564
431 13.3402 15.7215 22.2331
432 15.5636 14.1493 22.2333
433 15.5634 15.7216 20.01
434 17.7867 14.1493 20.0102
435 17.7865 15.7216 17.7868
436 20.0098 14.1493 17.787
437 20.0096 15.7215 15.5637
438 22.2329 14.1492 15.5638
439 22.2326 15.7214 13.3405
440 24.456 14.1491 13.3407
441 24.4556 15.7211 11.1174
442 26.6792 14.1488 11.1175
443 26.6785 15.7205 8.89432
444 28.9025 14.1481 8.89429
445 28.9015 15.7192 6.67096
446 11.1175 15.7212 28.9029
447 13.3406 14.1492 28.9032
448 13.3405 15.7215 26.6797
449 15.5638 14.1493 26.68
450 15.5637 15.7215 24.4566
451 17.787 14.1493 24.4568
452 17.7869 15.7216 22.2335
453 20.0102 14.1493 22.2337
454 20.01 15.7216 20.0103
455 22.2334 14.1493 20.0105
456 22.2332 15.7215 17.7872
457 24.4565 14.1493 17.7872
458 24.4563 15.7215 15.564
459 26.6797 14.1492 15.5641
460 26.6794 15.7212 13.341
461 28.903 14.1489 13.3411
462 28.9026 15.7206 11.1181
463 15.5638 15.7215 28.9034
464 17.787 14.1493 28.9036
465 17.787 15.7216 26.6802
466 20.0103 14.1493 26.6804
467 20.0103 15.7216 24.457
468 22.2336 14.1493 24.4571
469 22.2335 15.7216 22.2338
470 24.4569 14.1493 22.2338
471 24.4567 15.7216 20.0105
472 26.6801 14.1493 20.0105
473 26.68 15.7215 17.7873
474 28.9035 14.1492 17.7872
475 28.9033 15.7213 15.5642
476 20.0102 15.7215 28.9038
477 22.2335 14.1493 28.9038
478 22.2336 15.7216 26.6805
479 24.457 14.1493 26.6805
480 24.457 15.7216 24.4571
481 26.6804 14.1493 24.457
482 26.6803 15.7215 22.2336
483 28.9037 14.1492 22.2334
484 28.9036 15.7215 20.0102
485 24.4568 15.7215 28.9038
486 26.6803 14.1492 28.9037
487 26.6804 15.7215 26.6803
488 28.9038 14.1491 26.68
489 28.9038 15.7214 24.4566
490 28.9037 15.7212 28.9034
491 31.127 11.0048 2.22185
492 31.1272 12.5766 31.1266
493 2.2226 11.0048 31.1261
494 31.1265 11.0048 6.67021
495 31.1265 12.5757 4.44599
496 2.22236 11.0048 4.44583
497 2.22252 12.5757 2.22137
498 4.44673 11.0048 2.22139
499 4.44675 12.5762 31.1259
500 6.67053 11.0048 31.1261
501 31.1267 11.0048 11.1178
502 31.1265 12.5762 8.89429
503 2.22216 11.0048 8.89444
504 2.22229 12.5752 6.67049
505 4.44666 11.0048 6.67013
506 4.44702 12.5752 4.44576
507 6.67097 11.0048 4.44563
508 6.67082 12.5762 2.2214
509 8.89433 11.0048 2.22154
510 8.89417 12.5766 31.1263
511 11.1175 11.0048 31.1266
512 31.127 11.0048 15.5642
513 31.1268 12.5767 13.3412
514 2.22211 11.0048 13.3412
515 2.2221 12.5762 11.1182
516 4.44611 11.0048 11.1176
517 4.44638 12.5762 8.89418
518 6.67018 11.0048 8.89365
519 6.67071 12.5762 6.66985
520 8.89413 11.0048 6.66958
521 8.89475 12.5762 4.44557
522 11.1178 11.0048 4.44558
523 11.1177 12.5767 2.22168
524 13.3407 11.0048 2.22185
525 13.3407 12.5769 31.1268
526 15.5638 11.0048 31.127
527 31.1272 11.0048 20.0101
528 31.1271 12.577 17.7871
529 2.22224 11.0048 17.787
530 2.22215 12.5769 15.5641
531 4.44592 11.0048 15.5638
532 4.44597 12.5768 13.3408
533 6.66964 11.0048 13.3404
534 6.66984 12.5768 11.1172
535 8.89333 11.0048 11.1168
536 8.89368 12.5768 8.89331
537 11.1169 11.0048 8.89311
538 11.1174 12.5768 6.66944
539 13.3403 11.0048 6.66939
540 13.3407 12.5769 4.44562
541 15.5635 11.0048 4.44571
542 15.5637 12.577 2.22199
543 17.7867 11.0048 2.22212
544 17.7869 12.577 31.1271
545 20.0101 11.0048 31.1272
546 31.1274 11.0048 24.4564
547 31.1273 12.5769 22.2331
548 2.22245 11.0048 22.2328
549 2.22234 12.577 20.0098
550 4.44605 11.0048 20.0097
551 4.44595 12.577 17.7867
552 6.66958 11.0048 17.7866
553 6.66955 12.577 15.5635
554 8.89307 11.0048 15.5633
555 8.89313 12.577 13.3401
556 11.1165 11.0048 13.34
557 11.1166 12.577 11.1166
558 13.3399 11.0048 11.1165
559 13.34 12.577 8.89302
560 15.5631 11.0048 8.89305
561 15.5633 12.577 6.66942
562 17.7862 11.0048 6.66952
563 17.7864 12.577 4.44581
564 20.0093 11.0048 4.44592
565 20.0097 12.5769 2.22222
566 22.2329 11.0048 2.22227
567 22.2333 12.577 31.1273
568 24.4566 11.0048 31.1273
569 31.1273 11.0048 28.9031
570 31.1274 12.5768 26.6796
571 2.22259 11.0048 26.6791
572 2.22254 12.5767 24.4558
573 4.44631 11.0048 24.4558
574 4.44618 12.5769 22.2326
575 6.66983 11.0048 22.2327
576 6.66968 12.577 20.0096
577 8.89322 11.0048 20.0096
578 8.8931 12.577 17.7865
579 11.1165 11.0048 17.7865
580 11.1165 12.577 15.5632
581 13.3398 11.0048 15.5633
582 13.3398 12.577 13.3399
583 15.563 11.0048 13.34
584 15.563 12.577 11.1166
585 17.7862 11.0048 11.1167
586 17.7861 12.577 8.89315
587 20.0092 11.0048 8.8933
588 20.0092 12.5769 6.66965
589 22.2323 11.0048 6.66978
590 22.2323 12.5767 4.44601
591 24.4556 11.0048 4.44606
592 24.4561 12.5768 2.22227
593 26.6796 11.0048 2.22222
594 26.68 12.5769 31.1272
595 28.9035 11.0048 31.127
596 2.22265 12.5763 28.9023
597 4.44658 11.0048 28.9024
598 4.44649 12.5767 26.6789
599 6.67018 11.0048 26.6791
600 6.67002 12.5769 24.4558
601 8.89355 11.0048 24.456
602 8.89338 12.577 22.2328
603 11.1168 11.0048 22.233
604 11.1167 12.577 20.0097
605 13.3401 11.0048 20.0099
606 13.3399 12.577 17.7866
607 15.5632 11.0048 17.7867
608 15.5631 12.577 15.5634
609 17.7864 11.0048 15.5635
610 17.7862 12.577 13.3401
611 20.0095 11.0048 13.3403
612 20.0093 12.577 11.1169
613 22.2326 11.0048 11.117
614 22.2323 12.5769 8.89349
615 24.4557 11.0048 8.89365
616 24.4555 12.5767 6.66996
617 26.6789 11.0048 6.67005
618 26.6788 12.5763 4.44612
619 28.9026 11.0048 4.44607
620 28.9032 12.5766 2.22211
621 6.67041 12.5766 28.9025
622 8.89392 11.0048 28.9028
623 8.89376 12.5769 26.6793
624 11.1172 11.0048 26.6796
625 11.117 12.577 24.4562
626 13.3404 11.0048 24.4565
627 13.3402 12.577 22.2331
628 15.5636 11.0048 22.2333
629 15.5634 12.577 20.01
630 17.7867 11.0048 20.0102
631 17.7865 12.577 17.7869
632 20.0099 11.0048 17.787
633 20.0097 12.577 15.5637
634 22.233 11.0048 15.5638
635 22.2327 12.577 13.3405
636 24.4561 11.0048 13.3406
637 24.4558 12.5769 11.1172
638 26.6793 11.0048 11.1174
639 26.679 12.5766 8.89388
640 28.9027 11.0048 8.89401
641 28.9024 12.5762 6.67022
642 11.1173 12.5769 28.903
643 13.3406 11.0048 28.9032
644 13.3405 12.577 26.6798
645 15.5638 11.0048 26.68
646 15.5637 12.577 24.4567
647 17.787 11.0048 24.4569
648 17.7869 12.577 22.2335
649 20.0102 11.0048 22.2337
650 20.01 12.577 20.0103
651 22.2334 11.0048 20.0105
652 22.2332 12.577 17.7872
653 24.4566 11.0048 17.7872
654 24.4563 12.577 15.564
655 26.6798 11.0048 15.5641
656 26.6795 12.5769 13.3408
657 28.9031 11.0048 13.3409
658 28.9028 12.5766 11.1176
659 15.5638 12.577 28.9034
660 17.787 11.0048 28.9036
661 17.787 12.577 26.6802
662 20.0103 11.0048 26.6804
663 20.0103 12.577 24.457
664 22.2336 11.0048 24.4571
665 22.2335 12.577 22.2338
666 24.4569 11.0048 22.2338
667 24.4567 12.577 20.0105
668 26.6802 11.0048 20.0105
669 26.68 12.577 17.7873
670 28.9035 11.0048 17.7872
671 28.9033 12.5769 15.5641
672 20.0102 12.577 28.9038
673 22.2335 11.0048 28.9038
674 22.2336 12.577 26.6804
675 24.457 11.0048 26.6804
676 24.457 12.577 24.4571
677 26.6804 11.0048 24.457
678 26.6803 12.577 22.2337
679 28.9038 11.0048 22.2335
680 28.9036 12.577 20.0103
681 24.4569 12.577 28.9038
682 26.6803 11.0048 28.9037
683 26.6804 12.577 26.6803
684 28.9038 11.0048 26.6801
685 28.9038 12.577 24.4567
686 28.9037 12.5769 28.9035
687 31.127 7.86162 2.22189
688 31.1272 9.43295 31.1266
689 2.22276 7.8623 31.1255
690 31.1262 7.86279 6.67055
691 31.1265 9.43384 4.44599
692 2.22246 7.86483 4.44593
693 2.22252 9.43384 2.22137
694 4.44707 7.86279 2.22109
695 4.44675 9.43332 31.1259
696 6.67082 7.86142 31.1259
697 31.1266 7.86132 11.1182
698 31.1265 9.43339 8.89429
699 2.22216 7.86299 8.89546
700 2.22229 9.4343 6.67049
701 4.44706 7.86313 6.67053
702 4.44702 9.4343 4.44576
703 6.67199 7.86299 4.44563
704 6.67082 9.43339 2.2214
705 8.89471 7.86132 2.22144
706 8.89417 9.4329 31.1263
707 11.1176 7.86066 31.1265
708 31.1269 7.86051 15.5643
709 31.1268 9.43282 13.3412
710 2.22208 7.86095 13.3415
711 2.2221 9.4333 11.1182
712 4.44615 7.86113 11.1178
713 4.44638 9.43338 8.89418
714 6.67028 7.86121 8.89375
715 6.67071 9.43338 6.66985
716 8.89436 7.86113 6.66962
717 8.89475 9.4333 4.44557
718 11.118 7.86095 4.44555
719 11.1177 9.43282 2.22168
720 13.3408 7.86051 2.22183
721 13.3407 9.43262 31.1268
722 15.5638 7.86034 31.127
723 31.1272 7.86033 20.01
724 31.1271 9.43258 17.7871
725 2.22223 7.86032 17.7869
726 2.22215 9.43266 15.5641
727 4.44591 7.86042 15.5638
728 4.44597 9.43274 13.3408
729 6.66963 7.86047 13.3404
730 6.66984 9.43278 11.1172
731 8.89332 7.86049 11.1168
732 8.89368 9.43278 8.89331
733 11.1169 7.86047 8.8931
734 11.1174 9.43274 6.66944
735 13.3403 7.86042 6.66938
736 13.3407 9.43266 4.44562
737 15.5634 7.86032 4.44571
738 15.5637 9.43258 2.22199
739 17.7865 7.86033 2.22213
740 17.7869 9.43255 31.1271
741 20.01 7.86032 31.1272
742 31.1274 7.86055 24.4561
743 31.1273 9.4326 22.2331
744 2.22245 7.86051 22.2326
745 2.22234 9.43257 20.0098
746 4.44605 7.86035 20.0095
747 4.44595 9.43256 17.7867
748 6.66957 7.8603 17.7865
749 6.66955 9.43256 15.5635
750 8.89304 7.86028 15.5633
751 8.89313 9.43256 13.3401
752 11.1165 7.86027 13.3399
753 11.1166 9.43257 11.1166
754 13.3398 7.86028 11.1165
755 13.34 9.43256 8.89302
756 15.563 7.8603 8.89304
757 15.5633 9.43256 6.66942
758 17.7861 7.86035 6.66952
759 17.7864 9.43257 4.44581
760 20.0091 7.86051 4.44592
761 20.0097 9.4326 2.22222
762 22.2327 7.86055 2.22226
763 22.2333 9.43257 31.1273
764 24.4565 7.86041 31.1273
765 31.1273 7.86085 28.9029
766 31.1274 9.43273 26.6796
767 2.22264 7.86124 26.6785
768 2.22254 9.4328 24.4558
769 4.44638 7.8607 24.4555
770 4.44618 9.43264 22.2326
771 6.66985 7.86042 22.2326
772 6.66968 9.43256 20.0096
773 8.89322 7.86029 20.0096
774 8.8931 9.43253 17.7865
775 11.1165 7.86025 17.7865
776 11.1165 9.43252 15.5632
777 13.3398 7.86024 15.5632
778 13.3398 9.43252 13.3399
779 15.563 7.86025 13.34
780 15.563 9.43253 11.1166
781 17.7861 7.86029 11.1167
782 17.7861 9.43256 8.89315
783 20.0091 7.86042 8.89333
784 20.0092 9.43264 6.66965
785 22.232 7.8607 6.66985
786 22.2323 9.4328 4.44601
787 24.4551 7.86124 4.44611
788 24.4561 9.43273 2.22227
789 26.6795 7.86085 2.22221
790 26.68 9.43265 31.1272
791 28.9035 7.86072 31.127
792 2.22265 9.43321 28.9023
793 4.44681 7.86133 28.902
794 4.44649 9.43288 26.6789
795 6.67031 7.86074 26.6789
796 6.67002 9.43268 24.4558
797 8.89361 7.86045 24.4559
798 8.89338 9.43257 22.2328
799 11.1168 7.8603 22.2329
800 11.1167 9.43252 20.0097
801 13.34 7.86025 20.0098
802 13.3399 9.43251 17.7866
803 15.5632 7.86025 17.7867
804 15.5631 9.43251 15.5634
805 17.7864 7.86025 15.5635
806 17.7862 9.43252 13.3401
807 20.0094 7.8603 13.3403
808 20.0093 9.43257 11.1169
809 22.2324 7.86045 11.1171
810 22.2323 9.43268 8.89349
811 24.4554 7.86074 8.89378
812 24.4555 9.43288 6.66996
813 26.6785 7.86133 6.67028
814 26.6788 9.43321 4.44612
815 28.902 7.8623 4.44623
816 28.9032 9.43295 2.22211
817 6.67041 9.4329 28.9025
818 8.89407 7.86074 28.9026
819 8.89376 9.43268 26.6793
820 11.1172 7.86043 26.6795
821 11.117 9.43257 24.4562
822 13.3404 7.8603 24.4564
823 13.3402 9.43252 22.2331
824 15.5636 7.86025 22.2333
825 15.5634 9.43251 20.01
826 17.7867 7.86024 20.0102
827 17.7865 9.43251 17.7869
828 20.0098 7.86025 17.787
829 20.0097 9.43252 15.5637
830 22.2329 7.8603 15.5638
831 22.2327 9.43257 13.3405
832 24.456 7.86043 13.3407
833 24.4558 9.43268 11.1172
834 26.6792 7.86074 11.1175
835 26.679 9.4329 8.89388
836 28.9025 7.86142 8.89429
837 28.9024 9.43332 6.67022
838 11.1173 9.43266 28.903
839 13.3406 7.86039 28.9032
840 13.3405 9.43256 26.6798
841 15.5638 7.86028 26.68
842 15.5637 9.43252 24.4567
843 17.787 7.86025 24.4568
844 17.7869 9.43251 22.2335
845 20.0102 7.86024 22.2337
846 20.01 9.43251 20.0103
847 22.2334 7.86025 20.0105
848 22.2332 9.43252 17.7872
849 24.4565 7.86028 17.7872
850 24.4563 9.43256 15.564
851 26.6797 7.86039 15.5641
852 26.6795 9.43266 13.3408
853 28.903 7.86066 13.3411
854 28.9028 9.4329 11.1176
855 15.5638 9.43255 28.9034
856 17.787 7.86028 28.9036
857 17.787 9.43252 26.6802
858 20.0103 7.86025 26.6804
859 20.0103 9.43251 24.457
860 22.2336 7.86024 24.4571
861 22.2335 9.43251 22.2338
862 24.4569 7.86025 22.2338
863 24.4567 9.43252 20.0105
864 26.6801 7.86028 20.0105
865 26.68 9.43255 17.7873
866 28.9035 7.86034 17.7872
867 28.9033 9.43262 15.5641
868 20.0102 9.43253 28.9038
869 22.2335 7.86028 28.9038
870 22.2336 9.43251 26.6804
871 24.457 7.86026 26.6805
872 24.457 9.43251 24.4571
873 26.6804 7.86028 24.457
874 26.6803 9.43253 22.2337
875 28.9037 7.86032 22.2334
876 28.9036 9.43255 20.0103
877 24.4569 9.43254 28.9038
878 26.6803 7.86036 28.9037
879 26.6804 9.43254 26.6803
880 28.9038 7.86041 26.68
881 28.9038 9.43257 24.4567
882 28.9037 9.43265 28.9035
883 -0.000814613 4.71761 2.22266
884 31.1272 6.28913 31.1266
885 2.22348 4.72132 31.1217
886 31.125 4.72156 6.67205
887 31.125 6.29255 4.44647
888 2.22354 4.73315 4.44702
889 2.223 6.29255 2.21993
890 4.44858 4.72156 2.21992
891 4.44749 6.29038 31.125
892 6.67188 4.71781 31.1251
893 31.1262 4.7176 11.1197
894 31.1261 6.29062 8.8953
895 2.2221 4.72223 8.90094
896 2.22253 6.29505 6.67296
897 4.44859 4.72171 6.67206
898 4.44949 6.29505 4.446
899 6.67747 4.72223 4.44558
900 6.67183 6.29062 2.22101
901 8.89626 4.7176 2.22104
902 8.89463 6.289 31.126
903 11.118 4.71627 31.1263
904 31.127 4.71583 15.564
905 31.1267 6.28875 13.3416
906 2.22206 4.71613 13.3411
907 2.22205 6.29025 11.1197
908 4.44635 4.71692 11.1185
909 4.44668 6.29033 8.89497
910 6.6706 4.71714 8.89407
911 6.6715 6.29033 6.67015
912 8.895 4.71692 6.66982
913 8.89627 6.29025 4.44552
914 11.1176 4.71613 4.44553
915 11.1182 6.28875 2.22157
916 13.3405 4.71583 2.22185
917 13.3408 6.28823 31.1267
918 15.5636 4.71576 31.127
919 31.1273 4.71577 20.0098
920 31.1271 6.28805 17.787
921 2.22222 4.71573 17.7866
922 2.22214 6.28815 15.5639
923 4.44583 4.71575 15.5635
924 4.44598 6.28849 13.341
925 6.66956 4.71587 13.3402
926 6.66989 6.28861 11.1173
927 8.89321 4.71594 11.1167
928 8.89378 6.28861 8.89336
929 11.1168 4.71587 8.89303
930 11.1175 6.28849 6.66945
931 13.34 4.71575 6.6693
932 13.3405 6.28815 4.44561
933 15.5631 4.71573 4.44569
934 15.5635 6.28805 2.22201
935 17.7863 4.71577 2.22214
936 17.7867 6.28804 31.1271
937 20.0097 4.71581 31.1272
938 31.1273 4.71624 24.4555
939 31.1273 6.28822 22.2328
940 2.22247 4.71598 22.2323
941 2.22234 6.28808 20.0096
942 4.44603 4.7158 20.0093
943 4.44592 6.28802 17.7865
944 6.6695 4.71572 17.7863
945 6.66951 6.28806 15.5634
946 8.89295 4.7157 15.5631
947 8.89306 6.28808 13.34
948 11.1163 4.7157 13.3398
949 11.1166 6.28808 11.1165
950 13.3396 4.7157 11.1164
951 13.3399 6.28806 8.89298
952 15.5628 4.71572 8.89298
953 15.5631 6.28802 6.66939
954 17.7859 4.7158 6.6695
955 17.7861 6.28808 4.44581
956 20.0089 4.71598 4.44594
957 20.0094 6.28822 2.22221
958 22.232 4.71624 2.2222
959 22.2331 6.28813 31.1273
960 24.4563 4.71594 31.1272
961 31.1272 4.71682 28.902
962 31.1273 6.28864 26.6791
963 2.22281 4.7178 26.6765
964 2.22259 6.28878 24.4551
965 4.44658 4.71648 24.4547
966 4.44622 6.28831 22.2323
967 6.66992 4.71596 22.2322
968 6.66968 6.28808 20.0094
969 8.89321 4.71576 20.0094
970 8.89307 6.288 17.7863
971 11.1165 4.7157 17.7863
972 11.1164 6.28797 15.5632
973 13.3397 4.71568 15.5632
974 13.3397 6.28797 13.3399
975 15.5629 4.7157 13.3399
976 15.5629 6.288 11.1165
977 17.7859 4.71576 11.1167
978 17.7859 6.28808 8.89315
979 20.0087 4.71596 8.89339
980 20.0088 6.28831 6.6697
981 22.2312 4.71648 6.67006
982 22.2316 6.28878 4.44606
983 24.453 4.7178 4.44628
984 24.4556 6.28864 2.22223
985 26.6785 4.71682 2.22213
986 26.68 6.28833 31.1272
987 28.9036 4.71646 31.127
988 2.22285 6.2905 28.9007
989 4.44763 4.71767 28.9005
990 4.44676 6.28902 26.6782
991 6.67074 4.71647 26.6783
992 6.67016 6.28841 24.4555
993 8.89376 4.71599 24.4556
994 8.89342 6.28812 22.2326
995 11.1169 4.71578 22.2328
996 11.1167 6.288 20.0096
997 13.34 4.71571 20.0097
998 13.3399 6.28797 17.7865
999 15.5632 4.71569 17.7866
1000 15.563 6.28797 15.5633
1001 17.7863 4.71571 15.5635
1002 17.7861 6.288 13.3401
1003 20.0093 4.71578 13.3403
1004 20.0091 6.28812 11.1169
1005 22.2321 4.71599 11.1172
1006 22.232 6.28841 8.89363
1007 24.4548 4.71647 8.89421
1008 24.4547 6.28902 6.67023
1009 26.677 4.71767 6.6711
1010 26.6773 6.2905 4.44632
1011 28.8982 4.72132 4.44695
1012 28.9031 6.28913 2.2221
1013 6.67084 6.28903 28.902
1014 8.89454 4.71646 28.9022
1015 8.89396 6.28841 26.6791
1016 11.1174 4.71596 26.6793
1017 11.1171 6.28812 24.4561
1018 13.3404 4.71577 24.4563
1019 13.3402 6.28801 22.2331
1020 15.5635 4.71571 22.2333
1021 15.5634 6.28798 20.01
1022 17.7867 4.71569 20.0102
1023 17.7865 6.28798 17.7868
1024 20.0098 4.71571 17.787
1025 20.0096 6.28801 15.5637
1026 22.2329 4.71577 15.5639
1027 22.2326 6.28812 13.3405
1028 24.4559 4.71596 13.3409
1029 24.4556 6.28841 11.1174
1030 26.6788 4.71646 11.118
1031 26.6785 6.28903 8.89432
1032 28.9017 4.71781 8.89535
1033 28.9015 6.29038 6.67096
1034 11.1175 6.28835 28.9029
1035 13.3407 4.71588 28.9032
1036 13.3405 6.28809 26.6797
1037 15.5638 4.71574 26.68
1038 15.5637 6.288 24.4566
1039 17.787 4.7157 24.4568
1040 17.7869 6.28798 22.2335
1041 20.0102 4.71569 22.2337
1042 20.01 6.28798 20.0103
1043 22.2334 4.7157 20.0105
1044 22.2332 6.288 17.7872
1045 24.4565 4.71574 17.7873
1046 24.4563 6.28809 15.564
1047 26.6797 4.71588 15.5642
1048 26.6794 6.28835 13.341
1049 28.9029 4.71627 13.3414
1050 28.9026 6.289 11.1181
1051 15.5638 6.28805 28.9034
1052 17.7869 4.71572 28.9036
1053 17.787 6.28799 26.6802
1054 20.0103 4.7157 26.6804
1055 20.0103 6.28797 24.457
1056 22.2336 4.71569 24.4571
1057 22.2335 6.28797 22.2338
1058 24.4569 4.7157 22.2338
1059 24.4567 6.28799 20.0105
1060 26.6802 4.71572 20.0104
1061 26.68 6.28805 17.7873
1062 28.9035 4.71576 17.7871
1063 28.9033 6.28823 15.5642
1064 20.0102 6.288 28.9038
1065 22.2334 4.71574 28.9038
1066 22.2336 6.28798 26.6805
1067 24.457 4.71573 26.6805
1068 24.457 6.28798 24.4571
1069 26.6804 4.71574 24.4569
1070 26.6803 6.288 22.2336
1071 28.9037 4.71581 22.2332
1072 28.9036 6.28804 20.0102
1073 24.4568 6.28806 28.9038
1074 26.6803 4.71591 28.9037
1075 26.6804 6.28806 26.6803
1076 28.9037 4.71594 26.6798
1077 28.9038 6.28813 24.4566
1078 28.9037 6.28833 28.9034