LAMMPS data file via write_data, version 2 Aug 2023, timestep = 33, units = metal

687 atoms
3 atom types

0 22.009546999999998 xlo xhi
0 22.009546999999998 ylo yhi
0 22.009546999999998 zlo zhi

Masses

1 183.84
2 1.008
3 4.0026

Atoms # atomic

1 1 9.38646053316015e-05 1.2434497875801753e-13 22.00941433621317 0 0 -1
2 1 1.5713745575323146 1.5715905889384474 1.5715470435668537 0 0 0
3 1 3.143651316622328 22.00954699999845 22.009192667821434 0 -1 -1
4 1 4.715457499889722 1.5714126557294368 1.571191384096671 0 0 0
5 1 6.288008218471118 5.069143304797954e-13 22.009104047420657 0 0 -1
6 1 7.860268455947712 1.5713582759304012 1.5711106134916943 0 0 0
7 1 9.432806390595074 5.167340007896531e-13 22.009068565940318 0 0 -1
8 1 11.005284576401664 1.5713227085488943 1.5711320909112219 0 0 0
9 1 12.57774097561744 22.009546999999813 22.00911323059028 0 -1 -1
10 1 14.150186621472482 1.5712767877161247 1.571339508033724 0 0 0
11 1 15.722432585337229 2.0495475453822507e-13 22.00924569208875 0 0 -1
12 1 17.29470297526439 1.5712753197771947 1.5715757696884 0 0 0
13 1 18.866520075047003 22.009546999999834 22.00935362377717 0 -1 -1
14 1 20.43791109111417 1.5716672751355991 1.5719781049881867 0 0 0
15 1 0.000589145151391077 3.143657799105794 22.009311091064287 0 0 -1
16 1 1.5721117501650437 4.715675823362104 1.5714364527884064 0 0 0
17 1 3.1436750146807504 3.143376978363075 22.00891360018809 0 0 -1
18 1 4.715040433582292 4.71463984784204 1.5699323161014738 0 0 0
19 1 6.288055354747181 3.1432549321861596 22.008842343828274 0 0 -1
20 1 7.860274890324671 4.714538177200056 1.5700884288597157 0 0 0
21 1 9.432914772120009 3.1430685661118707 22.00881151345779 0 0 -1
22 1 11.005700382556737 4.714319950543769 1.5700075636734845 0 0 0
23 1 12.578012524238698 3.142951764337573 22.008826660216805 0 0 -1
24 1 14.15127385863355 4.714065476057359 1.5699842054804973 0 0 0
25 1 15.722973051799089 3.142895976485179 22.008925854877862 0 0 -1
26 1 17.29631162268416 4.714133006966116 1.5704731921472175 0 0 0
27 1 18.867151449918367 3.1431836213883795 22.009184954670445 0 0 -1
28 1 20.43900886020823 4.715428382249819 1.5716120420854707 0 0 0
29 1 0.001485344566279903 6.287952044535019 22.009287724505338 0 0 -1
30 1 1.5731757380989657 7.860304652218773 1.571593787945439 0 0 0
31 1 3.1446871111286576 6.288117732103413 22.0091214265987 0 0 -1
32 1 4.716756282977634 7.860463891121577 1.571162206195682 0 0 0
33 1 6.288437783840834 6.287597126958677 22.00831151567643 0 0 -1
34 1 7.861059327708963 7.859711603452288 1.569374246045639 0 0 0
35 1 9.433215421529225 6.287043573754929 22.008192147198862 0 0 -1
36 1 11.006137043323545 7.8587931464479075 1.568446825476455 0 0 0
37 1 12.578651358334438 6.2868057217761955 22.00799194517324 0 0 -1
38 1 14.153096724156336 7.85817051292155 1.5673613527272803 0 0 0
39 1 15.724292847795805 6.286529193408937 22.007985278185554 0 0 -1
40 1 17.297180933984837 7.859115411325821 1.5700209998579882 0 0 0
41 1 18.86803548741768 6.287368990117303 22.008962781916985 0 0 -1
42 1 20.43989504417383 7.859960574859294 1.5713813661419398 0 0 0
43 1 0.0020737791217624877 9.432466839136247 22.00923332736991 0 0 -1
44 1 1.5735637597065881 11.004773499988886 1.5715798791745959 0 0 0
45 1 3.1453218475288427 9.432575879516774 22.00921421809353 0 0 -1
46 1 4.7171494280516 11.004773499761285 1.5713301833775588 0 0 0
47 1 6.289349064132394 9.432679650502942 22.009112600561163 0 0 -1
48 1 7.861809294167736 11.004773499865344 1.5717482019382147 0 0 0
49 1 9.434014022501806 9.432573491157815 22.008773791733695 0 0 -1
50 1 11.006831052191274 11.004773499736018 1.570621965822313 0 0 0
51 1 12.579216672348073 9.432215552020311 22.00742944031826 0 0 -1
52 1 14.154047761324547 11.004773499806841 1.567121754944572 0 0 0
53 1 15.72501980438978 9.431855647413121 22.007786020782415 0 0 -1
54 1 17.297583426330476 11.004773499993359 1.5698529026034531 0 0 0
55 1 18.8686390140525 9.432220263283613 22.008824456816388 0 0 -1
56 1 20.44024272098785 11.00477350000256 1.5712745116499809 0 0 0
57 1 0.002073779123170274 12.577080160864767 22.009233327370882 0 0 -1
58 1 1.5731757381316884 14.149242347774031 1.5715937879800632 0 0 0
59 1 3.1453218475288147 12.576971120461758 22.009214218093472 0 0 -1
60 1 4.716756282725996 14.149083108815752 1.5711622056067895 0 0 0
61 1 6.289349064038862 12.576867349400159 22.009112600241885 0 0 -1
62 1 7.861059327770845 14.149835396540498 1.5693742432622781 0 0 0
63 1 9.43401402258801 12.576973508715156 22.008773791461834 0 0 -1
64 1 11.0061370432399 14.150753853624003 1.568446824612378 0 0 0
65 1 12.57921667234859 12.57733144794831 22.00742944002189 0 0 -1
66 1 14.153096724318782 14.151376487233353 1.567361351928456 0 0 0
67 1 15.725019804389518 12.577691352568925 22.007786020785133 0 0 -1
68 1 17.297180933958348 14.150431588647557 1.570020999905616 0 0 0
69 1 18.868639014052107 12.577326736717096 22.008824456819198 0 0 -1
70 1 20.43989504417388 14.149586425140466 1.5713813661454392 0 0 0
71 1 0.0014853445675611537 15.72159495546403 22.009287724506592 0 0 -1
72 1 1.5721117501609332 17.293871176639914 1.571436452783977 0 0 0
73 1 3.144687111124385 15.721429267901096 22.009121426589825 0 0 -1
74 1 4.71504043326659 17.29490715247048 1.56993231542781 0 0 0
75 1 6.288437783755723 15.721949873138966 22.008311515250945 0 0 -1
76 1 7.8602748904209 17.29500882288731 1.5700884287112171 0 0 0
77 1 9.433215421601538 15.722503426368405 22.008192146949842 0 0 -1
78 1 11.005700382682997 17.295227049628537 1.5700075633926094 0 0 0
79 1 12.578651358338321 15.722741278237464 22.007991945103495 0 0 -1
80 1 14.15127385866143 17.295481523988233 1.569984205400015 0 0 0
81 1 15.72429284781304 15.723017806608693 22.007985278136104 0 0 -1
82 1 17.296311622722875 17.295413993073556 1.5704731920855692 0 0 0
83 1 18.86803548741498 15.722178009880677 22.008962781921547 0 0 -1
84 1 20.439008860205654 17.294118617747003 1.5716120420896258 0 0 0
85 1 0.0005891451523676167 18.865889200894003 22.00931109106543 0 0 -1
86 1 1.571374557512209 20.437956411083082 1.5715470435464396 0 0 0
87 1 3.1436750146627093 18.866170021654735 22.00891360015641 0 0 -1
88 1 4.715457499906377 20.438134344239064 1.5711913841241405 0 0 0
89 1 6.288055354759923 18.866292067801535 22.00884234384572 0 0 -1
90 1 7.86026845594702 20.438188724067864 1.5711106134911252 0 0 0
91 1 9.432914772114243 18.866478433886353 22.00881151346347 0 0 -1
92 1 11.005284576398012 20.438224291443632 1.5711320909168653 0 0 0
93 1 12.578012524246914 18.86659523566956 22.00882666020683 0 0 -1
94 1 14.15018662147645 20.4382702122851 1.571339508030963 0 0 0
95 1 15.722973051799672 18.866651023514436 22.008925854878346 0 0 -1
96 1 17.294702975263945 20.438271680221966 1.5715757696888402 0 0 0
97 1 18.867151449919707 18.86636337861302 22.009184954668388 0 0 -1
98 1 20.4379110911145 20.437879724865603 1.5719781049871233 0 0 0
99 1 22.008936216136878 22.009546999998538 3.144092877195928 -1 -1 0
100 1 1.5706562907419368 1.5715270531324232 4.715850685104504 0 0 0
101 1 3.1428278649674737 3.4855673902711715e-11 3.1433265256088805 0 0 0
102 1 4.714434554888644 1.5706439778319654 4.714924535778401 0 0 0
103 1 6.287616184120989 22.009546999992125 3.1431421441582934 0 -1 0
104 1 7.859926457088564 1.570713729651531 4.715030088367046 0 0 0
105 1 9.432666104908183 22.009546999984256 3.1431254076694857 0 -1 0
106 1 11.005119829606764 1.5708940106629605 4.715149550974741 0 0 0
107 1 12.577584891166659 5.488942633746774e-12 3.14333787159875 0 0 0
108 1 14.149755744022197 1.570921182007121 4.715738229299891 0 0 0
109 1 15.722146380696271 2.7995383788947947e-12 3.143752747700186 0 0 0
110 1 17.293581392826244 1.5716406048038745 4.7163996277685625 0 0 0
111 1 18.8657097963571 2.7009746683182756e-12 3.144283857090449 0 0 0
112 1 20.43700188991348 1.5717868780324629 4.716381801022541 0 0 0
113 1 22.009096955740116 3.1435060013705263 3.143794943819632 -1 0 0
114 1 1.5702326989788422 4.715012399385886 4.715159262036856 0 0 0
115 1 3.142261819061842 3.142510719998789 3.1424752007774046 0 0 0
116 1 4.711426175592725 4.711493089278502 4.711585372282622 0 0 0
117 1 6.287227067638787 3.1421695094904956 3.1422555446823632 0 0 0
118 1 7.858908353691408 4.7117121697175035 4.712709640183887 0 0 0
119 1 9.432684474102205 3.142224932374781 3.1423295572533863 0 0 0
120 1 11.00580204531191 4.712262745283757 4.7127292987706495 0 0 0
121 1 12.578048246195207 3.1421969212067546 3.1424992686533715 0 0 0
122 1 14.152916964587705 4.7110734763675834 4.712639259955771 0 0 0
123 1 15.7233181726703 3.1418775689801666 3.1427094167085086 0 0 0
124 1 17.295103353056007 4.714843245881155 4.715645422930309 0 0 0
125 1 18.866354324315754 3.1432851760485727 3.1439211366013433 0 0 0
126 1 20.437652657813228 4.715661594443904 4.716093965238833 0 0 0
127 1 0.0008993185176649625 6.287931254475718 3.143700439797445 0 0 0
128 1 1.5721859389748334 7.8604581576845955 4.715788161558761 0 0 0
129 1 3.143384333882043 6.287670800580267 3.142842601125062 0 0 0
130 1 4.714538163867717 7.859954168641664 4.714383895549498 0 0 0
131 1 6.285556455280572 6.2848390632869995 3.1388588572922984 0 0 0
132 1 7.854787901535285 7.852775038341348 4.704930310343568 0 0 0
133 1 9.432745141851456 6.284968365629182 3.139836126275909 0 0 0
134 1 11.006926660123446 7.854475361692056 4.70590377387137 0 0 0
135 1 12.579727581942388 6.284810500470084 3.139230684275833 0 0 0
136 1 14.163646113087461 7.848097672234669 4.702243454188033 0 0 0
137 1 15.727246754320111 6.283482938468614 3.139165266054827 0 0 0
138 1 17.299058713159848 7.858191219074283 4.713461639116741 0 0 0
139 1 18.86840064310975 6.286944801813313 3.1429095687786814 0 0 0
140 1 20.43947967269432 7.860086347462839 4.7157133175331465 0 0 0
141 1 0.0017575384414251138 9.432476785165633 3.143549796053071 0 0 0
142 1 1.5728851432157844 11.004773499773425 4.715600003252116 0 0 0
143 1 3.1447584161033797 9.432582166674484 3.1433418664839814 0 0 0
144 1 4.716212338816672 11.004773497275078 4.714709556295362 0 0 0
145 1 6.289197491274499 9.433103442395506 3.143211238170608 0 0 0
146 1 7.863997249703717 11.004773500343632 4.718225052286816 0 0 0
147 1 9.434695592378832 9.432099210291856 3.1418684653187 0 0 0
148 1 11.01140761505199 11.004773504721014 4.718767049666393 0 0 0
149 1 12.582083515016036 9.430909971819908 3.134668953853678 0 0 0
150 1 14.161606241099301 11.004773497403665 4.704492128455286 0 0 0
151 1 15.727486902988083 9.430910261121301 3.1390978329134813 0 0 0
152 1 17.2995673432588 11.004773499559423 4.712897338499094 0 0 0
153 1 18.86916242176597 9.432062535833914 3.1425213221976893 0 0 0
154 1 20.44006788873813 11.004773499994366 4.715440512042584 0 0 0
155 1 0.0017575384397472583 12.577070214818066 3.143549796055755 0 0 0
156 1 1.5721859384360197 14.149088842222987 4.715788161336974 0 0 0
157 1 3.1447584159837323 12.576964832770814 3.143341866386791 0 0 0
158 1 4.714538159535302 14.149592831297204 4.714383891213049 0 0 0
159 1 6.289197489767073 12.576443556123342 3.1432112347920227 0 0 0
160 1 7.854787894227504 14.156771968913214 4.704930315490059 0 0 0
161 1 9.434695592515281 12.57744778901963 3.1418684610483885 0 0 0
162 1 11.006926661914365 14.155071642975866 4.705903769331542 0 0 0
163 1 12.582083516107032 12.57863702812393 3.1346689490914947 0 0 0
164 1 14.163646121244021 14.1614493344623 4.702243444352582 0 0 0
165 1 15.727486902970321 12.578636738346134 3.1390978328372543 0 0 0
166 1 17.29905871355325 14.151355780930647 4.71346163898378 0 0 0
167 1 18.86916242170113 12.577484464171778 3.1425213222752064 0 0 0
168 1 20.439479672626653 14.149460652496561 4.715713317566609 0 0 0
169 1 0.0008993185075369394 15.721615745521229 3.14370043980139 0 0 0
170 1 1.570232698299553 17.294534600937283 4.715159261709118 0 0 0
171 1 3.1433843335418494 15.721876199576554 3.142842600766851 0 0 0
172 1 4.711426169500705 17.298053916952238 4.711585366129691 0 0 0
173 1 6.285556453314268 15.724707938644341 3.138858851800862 0 0 0
174 1 7.858908354204489 17.29783483429532 4.712709635962053 0 0 0
175 1 9.43274514273545 15.72457863560174 3.139836123712819 0 0 0
176 1 11.00580204697872 17.297284257163994 4.712729296136768 0 0 0
177 1 12.579727582277954 15.724736500008236 3.139230682930069 0 0 0
178 1 14.15291696595727 17.29847352531588 4.712639258497693 0 0 0
179 1 15.727246755052814 15.726064062280816 3.139165264982152 0 0 0
180 1 17.29510335375579 17.294703754754476 4.71564542230208 0 0 0
181 1 18.86840064307394 15.722602198152796 3.1429095688154294 0 0 0
182 1 20.437652657853853 17.293885405608446 4.716093965185798 0 0 0
183 1 22.009096955711183 18.866040998649456 3.1437949437993487 -1 0 0
184 1 1.5706562907618815 20.438019946844477 4.715850685113924 0 0 0
185 1 3.142261818475219 18.867036280603738 3.1424752001849607 0 0 0
186 1 4.71443455455575 20.438903022907706 4.714924535444386 0 0 0
187 1 6.287227067836684 18.867377490594563 3.1422555445752756 0 0 0
188 1 7.859926457153419 20.43883327052896 4.715030088205824 0 0 0
189 1 9.432684474119524 18.867322067736772 3.1423295571162178 0 0 0
190 1 11.005119829723249 20.43865298962132 4.715149550763845 0 0 0
191 1 12.578048246328537 18.867350078892745 3.1424992685105564 0 0 0
192 1 14.149755744115309 20.438625818146143 4.715738229203847 0 0 0
193 1 15.723318172740859 18.867669431085 3.1427094166483003 0 0 0
194 1 17.293581392861807 20.437906395257166 4.716399627732874 0 0 0
195 1 18.866354324351487 18.866261823985823 3.143921136568554 0 0 0
196 1 20.437001889909865 20.437760121961833 4.716381801026943 0 0 0
197 1 22.008276180593978 1.926232878272098e-13 6.288399119437773 -1 0 0
198 1 1.5701870968786937 1.5715113883776504 7.8603698707653855 0 0 0
199 1 3.1422806441136446 5.300648808770347e-12 6.287867834958316 0 0 0
200 1 4.713932458175551 1.5705878965820104 7.859973580762802 0 0 0
201 1 6.287090274006356 4.766640455545564e-10 6.2876314819195285 0 0 0
202 1 7.859579827780521 1.570309636159231 7.860264329484873 0 0 0
203 1 9.432490121285808 2.9773528088012525e-10 6.287778857153605 0 0 0
204 1 11.004411971497259 1.5716418372017782 7.860569338759655 0 0 0
205 1 12.576857641587033 1.695095716068086e-10 6.288305286758386 0 0 0
206 1 14.1488114095439 1.5718624422798024 7.860683943667484 0 0 0
207 1 15.721082675917668 4.518269598367726e-11 6.288603616687259 0 0 0
208 1 17.292868976905957 1.571857213597233 7.86064057386425 0 0 0
209 1 18.864865999377308 22.009546999994658 6.288598775433343 0 -1 0
210 1 20.4364096544194 1.571852150154139 7.8605952558119085 0 0 0
211 1 22.00828991998554 3.1435427536234473 6.288229933665161 -1 0 0
212 1 1.5696127097233834 4.714909003236 7.8601028353262 0 0 0
213 1 3.141648640052896 3.142364169309565 6.287372412741987 0 0 0
214 1 4.711454426926787 4.7117688861679845 7.858899087583416 0 0 0
215 1 6.285727039350946 3.1398791897529423 6.286311622587397 0 0 0
216 1 7.856808917286807 4.707530028287729 7.858804521734975 0 0 0
217 1 9.432484194778036 3.14102228943756 6.286789269407938 0 0 0
218 1 11.00396965732815 4.714703595705345 7.859944921422796 0 0 0
219 1 12.577302844655446 3.1418338976697044 6.287669803977126 0 0 0
220 1 14.149263854825131 4.715751707347545 7.860952117469045 0 0 0
221 1 15.721518253912894 3.1434012873704735 6.288498675958378 0 0 0
222 1 17.29364854389117 4.715633276083123 7.860515360271607 0 0 0
223 1 18.865216151012003 3.1437155124507763 6.288482335593855 0 0 0
224 1 20.436789612661254 4.715775238022506 7.8604889012914 0 0 0
225 1 22.008696570642375 6.287887179653659 6.288093436519173 -1 0 0
226 1 1.5700535898861405 7.860090046349815 7.860310595137781 0 0 0
227 1 3.1396832112293995 6.285857405537948 6.286166807057292 0 0 0
228 1 4.706618985272115 7.856028675882843 7.8579906797280765 0 0 0
229 1 6.275185046608531 6.274886880459917 6.2759053802545 0 0 0
230 1 7.820541648093967 7.822666998269722 7.826889471289976 0 0 0
231 1 9.431896575183835 6.27862045995491 6.282104630362417 0 0 0
232 1 11.020078225182061 7.852204612652912 7.835551483888212 0 0 0
233 1 12.583929006718472 6.2774796494064 6.2803622355557955 0 0 0
234 1 14.152519778338336 7.860010723512153 7.86217172821219 0 0 0
235 1 15.724091952979558 6.286643888967521 6.287653594066672 0 0 0
236 1 17.29474912383685 7.860234856709532 7.860989361714225 0 0 0
237 1 18.866391880431806 6.287901419359895 6.288350803691789 0 0 0
238 1 20.437688877249954 7.86040250169355 7.860603363050559 0 0 0
239 1 0.0009415995015383021 9.432739457072877 6.288199403666815 0 0 0
240 1 1.5729377380661773 11.004773499559457 7.860383451241524 0 0 0
241 1 3.1439506267439006 9.433235767998932 6.287985185833408 0 0 0
242 1 4.720548333850604 11.004773503473299 7.861214097603622 0 0 0
243 1 6.286382731944928 9.43456166030481 6.28758156587319 0 0 0
244 1 7.8845496886829975 11.004773509852102 7.869823256684101 0 0 0
245 1 9.418974076092722 9.40798029443231 6.279474108648334 0 0 0
246 1 11.08263489906216 11.00477362288974 7.6281412466919996 0 0 0
247 1 12.618472290754436 9.399256925883797 6.249904918278693 0 0 0
248 1 14.156694361535942 11.00477349359645 7.851978025703111 0 0 0
249 1 15.732280545218202 9.430170462800993 6.283464547927386 0 0 0
250 1 17.29571608954996 11.004773498672549 7.860544184853288 0 0 0
251 1 18.868663353594055 9.432423720730611 6.287754221786843 0 0 0
252 1 20.43859793744083 11.004773499826682 7.86060981109833 0 0 0
253 1 0.0009415992094142822 12.576807542778768 6.288199403619199 0 0 0
254 1 1.5700535867892311 14.149456953802503 7.860310595023999 0 0 0
255 1 3.1439506229628207 12.576311230320371 6.287985184297993 0 0 0
256 1 4.706618991477503 14.153518326313316 7.8579906777667805 0 0 0
257 1 6.286382730150696 12.574985355141163 6.287581567722002 0 0 0
258 1 7.820541646546245 14.186880007999193 7.826889467388928 0 0 0
259 1 9.418974064856911 12.601566728165801 6.279474091212687 0 0 0
260 1 11.02007823856938 14.15734240047147 7.835551487237603 0 0 0
261 1 12.618472304908797 12.610290095089066 6.249904909218339 0 0 0
262 1 14.152519831351867 14.149536331715423 7.8621716788683065 0 0 0
263 1 15.732280551243177 12.579376535814182 6.2834645469016435 0 0 0
264 1 17.294749129101515 14.14931214478142 7.860989360205142 0 0 0
265 1 18.868663353970355 12.577123278877053 6.28775422189636 0 0 0
266 1 20.437688877586346 14.14914449847273 7.860603362916245 0 0 0
267 1 22.008696570221385 15.721659820496185 6.288093436379396 -1 0 0
268 1 1.5696127093432066 17.29463799700486 7.860102835324622 0 0 0
269 1 3.1396832058610915 15.723689596376467 6.286166804896843 0 0 0
270 1 4.711454423128903 17.29777811757023 7.858899087686074 0 0 0
271 1 6.275185058082941 15.734660106855493 6.275905390886133 0 0 0
272 1 7.856808916900632 17.30201696732864 7.858804521377677 0 0 0
273 1 9.431896564594016 15.730926549389409 6.282104625687792 0 0 0
274 1 11.003969653621843 17.294843409146512 7.859944923555605 0 0 0
275 1 12.58392900993696 15.73206735521541 6.280362233760194 0 0 0
276 1 14.149263857603309 17.293795298006554 7.860952115690965 0 0 0
277 1 15.72409195854368 15.722903115620705 6.28765358954453 0 0 0
278 1 17.293648544043705 17.293913724037317 7.860515360457817 0 0 0
279 1 18.86639188125858 15.72164558107243 6.288350803260403 0 0 0
280 1 20.436789612599604 17.293771761968685 7.860488901330835 0 0 0
281 1 22.00828991997416 18.866004246380676 6.288229933675474 -1 0 0
282 1 1.570187096879024 20.438035611620254 7.8603698707595715 0 0 0
283 1 3.141648639845499 18.8671828308928 6.2873724128071915 0 0 0
284 1 4.713932457917259 20.438959103822448 7.859973580773865 0 0 0
285 1 6.285727037425055 18.86966781556241 6.2863116205820955 0 0 0
286 1 7.859579827651698 20.439237366803557 7.860264329320799 0 0 0
287 1 9.432484195541317 18.868524714130242 6.2867892676006285 0 0 0
288 1 11.004411971754722 20.437905164321513 7.860569338362017 0 0 0
289 1 12.577302845253994 18.867713104266056 6.287669802979891 0 0 0
290 1 14.148811409738611 20.43768455829777 7.860683943565103 0 0 0
291 1 15.721518254377623 18.866145713406457 6.28849867558414 0 0 0
292 1 17.29286897690385 20.4376897863683 7.860640573888666 0 0 0
293 1 18.865216150959437 18.8658314874964 6.288482335651308 0 0 0
294 1 20.43640965441947 20.43769484984494 7.860595255811 0 0 0
295 1 22.008013277162625 22.009546999999372 9.432662999994188 -1 -1 0
296 1 1.5701870968721443 1.5715113883747867 11.00495612922675 0 0 0
297 1 3.1420362801104273 7.467804152838653e-12 9.432662999994525 0 0 0
298 1 4.713932458171381 1.5705878965808302 11.005352419230766 0 0 0
299 1 6.286615676737919 3.7690175249273793e-10 9.432662999995154 0 0 0
300 1 7.85957982777671 1.5703096361571958 11.005061670506961 0 0 0
301 1 9.432253744802917 8.3119506631431e-10 9.432662999992736 0 0 0
302 1 11.004411971494743 1.5716418371996512 11.004756661225432 0 0 0
303 1 12.576595169701003 3.33287248621926e-10 9.432662999993086 0 0 0
304 1 14.148811409542853 1.5718624422771157 11.004642056315785 0 0 0
305 1 15.720738898413613 22.009546999993255 9.432662999993644 0 -1 0
306 1 17.292868976904227 1.5718572135975932 11.004685426122677 0 0 0
307 1 18.86452942663658 22.009546999998104 9.432662999994044 0 -1 0
308 1 20.436409654415367 1.5718521501528782 11.004730744177923 0 0 0
309 1 22.00797681461913 3.1435560375642733 9.43266299999636 -1 0 0
310 1 1.5696127097114911 4.714909003231877 11.005223164672913 0 0 0
311 1 3.141353456179582 3.1423317793645333 9.432662999999803 0 0 0
312 1 4.711454426911607 4.711768886166514 11.00642691243321 0 0 0
313 1 6.2849167406539035 3.1398026705675446 9.432662999999717 0 0 0
314 1 7.856808917270391 4.707530028280474 11.006521478280703 0 0 0
315 1 9.431877965951278 3.1433961553191994 9.432662999997778 0 0 0
316 1 11.003969657319105 4.7147035957028125 11.005381078576505 0 0 0
317 1 12.576573234269425 3.144360134345495 9.432662999991077 0 0 0
318 1 14.149263854827703 4.715751707334038 11.004373882508347 0 0 0
319 1 15.721086517503796 3.143708479571956 9.432662999987835 0 0 0
320 1 17.293648543887606 4.715633276082269 11.004810639699249 0 0 0
321 1 18.864803275245368 3.1438165644020026 9.432662999992454 0 0 0
322 1 20.436789612652543 4.7157752380202345 11.004837098693466 0 0 0
323 1 22.00814330952751 6.287761340323448 9.432662999995781 -1 0 0
324 1 1.5700535898671868 7.860090046344948 11.005015404888418 0 0 0
325 1 3.1393023676940595 6.285473046830742 9.432663000016294 0 0 0
326 1 4.70661898527056 7.856028675882706 11.007335320328144 0 0 0
327 1 6.277407772464617 6.277351035629554 9.432663000020803 0 0 0
328 1 7.820541648121961 7.822666998275091 11.03843652872417 0 0 0
329 1 9.427541863412829 6.291817172097107 9.432663000013076 0 0 0
330 1 11.020078225172613 7.852204612676385 11.029774516191951 0 0 0
331 1 12.574782801767334 6.290974128019698 9.432663000011052 0 0 0
332 1 14.152519778348534 7.86001072349566 11.003154271806576 0 0 0
333 1 15.72237543696599 6.287160118544642 9.43266299997858 0 0 0
334 1 17.294749123840493 7.860234856703127 11.004336638243753 0 0 0
335 1 18.865654177431004 6.287874951371886 9.432662999983634 0 0 0
336 1 20.43768887723577 7.860402501691032 11.00472263693048 0 0 0
337 1 5.962691881885545e-05 9.432816864144197 9.432663000002178 0 0 0
338 1 1.572937738058755 11.004773499559457 11.004942548791087 0 0 0
339 1 3.143099857055613 9.432859848171319 9.432663000028507 0 0 0
340 1 4.72054833389393 11.004773503473304 11.004111902414927 0 0 0
341 1 6.282369599142213 9.424447520270675 9.432663000018884 0 0 0
342 1 7.884549692148752 11.004773509851951 10.995502741275235 0 0 0
343 1 9.356462243548993 9.200321147300402 9.432663000522592 0 0 0
344 1 11.082634895284722 11.004773622889807 11.23718474671948 0 0 0
345 1 12.554761918311009 9.442115290188818 9.432663000336419 0 0 0
346 1 14.156694361791672 11.00477349359645 11.013347974337503 0 0 0
347 1 15.718361469491605 9.433458092570845 9.432662999994829 0 0 0
348 1 17.295716089555533 11.004773498672549 11.004781815105378 0 0 0
349 1 18.865756930150702 9.432563834932235 9.432662999979387 0 0 0
350 1 20.438597937434466 11.004773499826682 11.004716188880977 0 0 0
351 1 5.9626433718866155e-05 12.576730135627738 9.432663000002178 0 0 0
352 1 1.5700535867702896 14.149456953807372 11.0050154050022 0 0 0
353 1 3.1430998575665514 12.576687149704108 9.43266300002851 0 0 0
354 1 4.7066189914759855 14.153518326313439 11.007335322289428 0 0 0
355 1 6.2823695898788126 12.585099493570565 9.432663000018866 0 0 0
356 1 7.820541646573972 14.186880007994032 11.038436532625468 0 0 0
357 1 9.356472540190577 12.809204594322296 9.432663000522453 0 0 0
358 1 11.020078238560027 14.157342400448051 11.029774512842641 0 0 0
359 1 12.554761045221722 12.567431187806333 9.432663000336424 0 0 0
360 1 14.15251983136209 14.149536331731923 11.003154321150467 0 0 0
361 1 15.718361525081464 12.576088913080682 9.432662999994829 0 0 0
362 1 17.29474912910516 14.149312144787826 11.004336639752836 0 0 0
363 1 18.865756932600732 12.57698316467317 9.432662999979385 0 0 0
364 1 20.437688877572167 14.149144498475248 11.004722637064795 0 0 0
365 1 22.008143309100912 15.721785659893424 9.432662999995783 -1 0 0
366 1 1.5696127093313152 17.29463799700898 11.005223164674492 0 0 0
367 1 3.1393023636468484 15.724073955566602 9.432663000016301 0 0 0
368 1 4.711454423113728 17.2977781175717 11.006426912330566 0 0 0
369 1 6.2774077639087045 15.732195973771173 9.4326630000208 0 0 0
370 1 7.8568089168842326 17.302016967335863 11.006521478637987 0 0 0
371 1 9.427541864847557 15.717729837944468 9.432663000013049 0 0 0
372 1 11.003969653612794 17.294843409149045 11.005381076443697 0 0 0
373 1 12.574782810165516 15.71857291912235 9.432663000011043 0 0 0
374 1 14.14926385760588 17.29379529802006 11.004373884286426 0 0 0
375 1 15.722375435109019 15.72238687926347 9.43266299997858 0 0 0
376 1 17.29364854404014 17.293913724038173 11.004810639513039 0 0 0
377 1 18.86565417764451 15.721672048765312 9.432662999983636 0 0 0
378 1 20.436789612590893 17.29377176197096 11.004837098654033 0 0 0
379 1 22.00797681461307 18.865990962438595 9.43266299999636 -1 0 0
380 1 1.570187096872474 20.438035611623118 11.004956129232564 0 0 0
381 1 3.14135345578113 18.867215221042954 9.432662999999804 0 0 0
382 1 4.7139324579130895 20.438959103823628 11.005352419219705 0 0 0
383 1 6.284916738523763 18.869744333207326 9.432662999999723 0 0 0
384 1 7.859579827647887 20.439237366805582 11.005061670671036 0 0 0
385 1 9.431877966954309 18.86615084377966 9.43266299999778 0 0 0
386 1 11.004411971752205 20.43790516432364 11.00475666162307 0 0 0
387 1 12.576573235154807 18.865186869791362 9.432662999991077 0 0 0
388 1 14.148811409737565 20.43768455830046 11.004642056418167 0 0 0
389 1 15.72108651780166 18.865838520757652 9.432662999987837 0 0 0
390 1 17.29286897690212 20.43768978636794 11.004685426098261 0 0 0
391 1 18.864803275231825 18.865730435570434 9.432662999992454 0 0 0
392 1 20.436409654415442 20.437694849846203 11.004730744178831 0 0 0
393 1 22.008276180587295 1.9271006446693516e-13 12.576926880556112 -1 0 0
394 1 1.5706562907311088 1.571527053127776 14.149475314892419 0 0 0
395 1 3.1422806441043956 5.300648808770347e-12 12.57745816503384 0 0 0
396 1 4.714434554879299 1.5706439778282422 14.15040146421858 0 0 0
397 1 6.287090274001251 4.766624684934136e-10 12.577694518070363 0 0 0
398 1 7.859926457082902 1.5707137296475409 14.150295911624957 0 0 0
399 1 9.432490121284413 2.977354443432633e-10 12.577547142834574 0 0 0
400 1 11.005119829603155 1.5708940106594707 14.150176449011836 0 0 0
401 1 12.576857641585834 1.6950870997519976e-10 12.577020713224897 0 0 0
402 1 14.149755744019833 1.5709211820027613 14.149587770683915 0 0 0
403 1 15.721082675916552 4.518304247211771e-11 12.57672238329772 0 0 0
404 1 17.293581392819835 1.5716406048049314 14.148926372218323 0 0 0
405 1 18.864865999374352 22.00954699999466 12.576727224557153 0 -1 0
406 1 20.437001889904046 1.5717868780305706 14.14894419897185 0 0 0
407 1 22.008289919972036 3.143542753618045 12.577096066328231 -1 0 0
408 1 1.5702326989503455 4.715012399374533 14.15016673797308 0 0 0
409 1 3.141648640040506 3.1423641693030624 12.577953587259573 0 0 0
410 1 4.711426175565629 4.711493089279783 14.153740627729917 0 0 0
411 1 6.285727039335541 3.1398791897510048 12.57901437741635 0 0 0
412 1 7.858908353656768 4.71171216970764 14.152616359828265 0 0 0
413 1 9.432484194768575 3.1410222894294977 12.578536730585395 0 0 0
414 1 11.005802045297122 4.712262745271122 14.15259670122405 0 0 0
415 1 12.577302844649285 3.1418338976630413 12.577656196006238 0 0 0
416 1 14.152916964584557 4.711073476351703 14.152686740027859 0 0 0
417 1 15.721518253908918 3.1434012873662787 12.576827324022386 0 0 0
418 1 17.295103353050564 4.714843245876083 14.149680577049956 0 0 0
419 1 18.86521615100129 3.1437155124505405 12.576843664392266 0 0 0
420 1 20.437652657793404 4.715661594439359 14.149232034752325 0 0 0
421 1 22.00869657061224 6.287887179647316 12.57723256348156 -1 0 0
422 1 1.5721859389435497 7.860458157688106 14.14953783845325 0 0 0
423 1 3.1396832111908783 6.285857405530543 12.579159192971206 0 0 0
424 1 4.714538163842901 7.859954168671454 14.150942104461969 0 0 0
425 1 6.275185046579699 6.274886880466127 12.589420619769552 0 0 0
426 1 7.854787901487556 7.852775038330525 14.160395689684918 0 0 0
427 1 9.43189657515471 6.278620459933288 12.583221369673506 0 0 0
428 1 11.00692666010758 7.854475361679626 14.159422226156966 0 0 0
429 1 12.583929006711253 6.277479649397602 12.584963764447107 0 0 0
430 1 14.163646113093183 7.8480976722103835 14.163082545811417 0 0 0
431 1 15.72409195298838 6.286643888947729 12.577672405907421 0 0 0
432 1 17.29905871315792 7.858191219063481 14.151864360861042 0 0 0
433 1 18.866391880421375 6.287901419354718 12.576975196283952 0 0 0
434 1 20.439479672671123 7.860086347458955 14.149612682457734 0 0 0
435 1 0.0009415994788814542 9.432739457072955 12.577126596336003 0 0 0
436 1 1.5728851431714717 11.004773499773425 14.149725996774198 0 0 0
437 1 3.143950626736019 9.433235768010878 12.577340814198505 0 0 0
438 1 4.716212338792503 11.004773497275089 14.15061644372159 0 0 0
439 1 6.286382732000398 9.434561660345084 12.57774443410423 0 0 0
440 1 7.863997249692023 11.004773500343621 14.147100947721608 0 0 0