LAMMPS data file via write_data, version 2 Aug 2023, timestep = 31, units = metal

687 atoms
3 atom types

0 22.009546999999998 xlo xhi
0 22.009546999999998 ylo yhi
0 22.009546999999998 zlo zhi

Masses

1 183.84
2 1.008
3 4.0026

Atoms # atomic

106 1 22.009013474742932 3.1414504027588053 6.285566641597857 -1 0 0
2 1 1.5715011892573945 1.5715011892573945 1.569150255418538 0 0 0
126 1 18.872117389691663 9.429710141625478 6.285054724764984 0 0 0
4 1 4.715812740025668 1.5716116589226719 1.5693432923521295 0 0 0
116 1 9.424429840815428 6.270899712774284 6.285877655680513 0 0 0
6 1 7.860348534154001 1.5718333145480623 1.5700259989572027 0 0 0
397 1 14.147350652499568 11.004088417223281 4.73146872789004 0 0 0
8 1 11.004391278730031 1.5718228458892982 1.570389037857663 0 0 0
117 1 12.58387612573984 6.270873717236453 6.285869197663132 0 0 0
10 1 14.148425705422119 1.5717655991606212 1.5700405162714532 0 0 0
118 1 15.733930727165747 6.274315504048552 6.2799233671344945 0 0 0
12 1 17.29294602217146 1.571532967275082 1.5693432189112801 0 0 0
125 1 15.737225981565732 9.424353962476234 6.28586914938257 0 0 0
14 1 20.437249697679658 1.571469109985661 1.5691446769085085 0 0 0
396 1 11.004093644254509 11.00409364425451 4.774836834028962 0 0 0
16 1 1.5716116589226714 4.715812740025669 1.5693432923521295 0 0 0
399 1 20.438406720730818 11.004270015937593 4.713154397732308 0 0 0
18 1 4.716163888983273 4.716163888983273 1.5696029699981822 0 0 0
395 1 7.860789976398151 11.004142910579166 4.731472362390948 0 0 0
20 1 7.861035842409888 4.717135308209325 1.5713176193357117 0 0 0
394 1 4.7117648442177344 11.004235028941162 4.715369187392634 0 0 0
22 1 11.004329827837571 4.717187800941568 1.572342013990909 0 0 0
393 1 1.5697298756350184 11.004325094360098 4.713160388276137 0 0 0
24 1 14.147630259623583 4.717054119110062 1.5713222448076898 0 0 0
115 1 6.274382163265848 6.274382163265848 6.279945130552753 0 0 0
26 1 17.292500778983012 4.716074106574951 1.5696095790708893 0 0 0
398 1 17.296369614831146 11.004151040161963 4.715360813556903 0 0 0
28 1 20.43704792163816 4.7157840426982585 1.5693475027692356 0 0 0
350 1 20.436449147690297 11.004348152141105 1.570381661205582 0 0 0
30 1 1.5718333145480614 7.860348534154001 1.5700259989572036 0 0 0
114 1 3.1374521298953644 6.282973411034619 6.284291606358984 0 0 0
32 1 4.717135308209325 7.861035842409888 1.5713176193357117 0 0 0
113 1 22.00893678790267 6.284901391184489 6.285160221274494 -1 0 0
34 1 7.8628297112561105 7.8628297112561105 1.5759224560133032 0 0 0
112 1 18.86803453748567 3.1403845659492235 6.285170134458132 0 0 0
36 1 11.00421875116449 7.86315620235817 1.5797348480276607 0 0 0
111 1 15.725510460356569 3.137387485133441 6.284315815556154 0 0 0
38 1 14.145611175102209 7.862749100722205 1.5759167080115806 0 0 0
349 1 17.291084677066742 11.004241385682933 1.5723337915510331 0 0 0
40 1 17.29130650431897 7.8609468219109955 1.5713156220807207 0 0 0
348 1 14.145094907429224 11.004141523372915 1.5797344638729227 0 0 0
42 1 20.436601834089842 7.860306301011328 1.5700304908138418 0 0 0
110 1 12.57871703441726 3.1359878873520644 6.285052500887509 0 0 0
109 1 9.429771137235381 3.136005869446231 6.285045559023575 0 0 0
108 1 6.282973411034617 3.137452129895365 6.284291606358984 0 0 0
107 1 3.1404538345263853 3.140453834526386 6.285142944794955 0 0 0
47 1 12.574041014829216 9.434303793950471 0.005265973422403728 0 0 0
48 1 15.717541269878957 9.433473382764511 0.0013563780796043436 0 0 0
347 1 11.004130896603225 11.004130896603225 1.5887821788882477 0 0 0
119 1 18.870862173857024 6.282907809393348 6.2843045150607155 0 0 0
51 1 1.5706059411672326 1.5706059411672328 4.712809566429101 0 0 0
98 1 18.865234371153417 9.431926854986232 3.1421749459477835 0 0 0
53 1 4.713424057165594 1.5699019708825284 4.712298085209848 0 0 0
124 1 12.594752615230055 9.413346836475588 6.3279315988832145 0 0 0
55 1 7.858295126918808 1.569608767044247 4.71264997476771 0 0 0
123 1 9.41338760237477 9.413387602374772 6.327892200121131 0 0 0
57 1 11.004325094360098 1.5697298756350182 4.713160388276135 0 0 0
122 1 6.270899712774284 9.424429840815426 6.285877655680513 0 0 0
59 1 14.150339728589216 1.569542109803344 4.712670591237966 0 0 0
121 1 3.1360058694462314 9.42977113723538 6.285045559023575 0 0 0
61 1 17.29518336479198 1.5698274936212673 4.712319627741228 0 0 0
120 1 22.00884032004883 9.430791326134546 6.285272124482832 -1 0 0
63 1 20.437980923742913 1.5705769040828075 4.712812589172675 0 0 0
64 1 22.009091138462864 3.142761798590747 3.140537445403753 -1 0 0
65 1 1.5699019708825284 4.713424057165594 4.712298085209848 0 0 0
66 1 3.1423283218143245 3.142328321814324 3.140140671300527 0 0 0
67 1 4.710965294695061 4.710965294695062 4.710773303136285 0 0 0
68 1 6.2867971673608185 3.1424238340950046 3.14066716854337 0 0 0
69 1 7.856498854512408 4.710572605447759 4.712577514962452 0 0 0
70 1 9.432004134084556 3.14303550418461 3.142180612862717 0 0 0
71 1 11.004235028941162 4.7117648442177344 4.715369187392633 0 0 0
72 1 12.576665450708015 3.142995579622883 3.1421910362212326 0 0 0
73 1 14.151981823966658 4.710510332048265 4.712570260913919 0 0 0
74 1 15.721866832922169 3.14233908062469 3.140693843066688 0 0 0
75 1 17.297531817482785 4.710874627619032 4.710788056938886 0 0 0
76 1 18.866324486897906 3.1422677690263545 3.140146793750831 0 0 0
77 1 20.438589233093023 4.713387616347444 4.712317065107257 0 0 0
78 1 22.00901173906914 6.287059045661365 3.1407675747993298 -1 0 0
79 1 1.569608767044247 7.858295126918808 4.71264997476771 0 0 0
80 1 3.142423834095004 6.2867971673608185 3.1406671685433705 0 0 0
81 1 4.710572605447758 7.856498854512408 4.712577514962451 0 0 0
82 1 6.287127727584643 6.287127727584643 3.1420193939685075 0 0 0
83 1 7.856574450664882 7.856574450664882 4.718442203075309 0 0 0
84 1 9.43294920457864 6.288651474046533 3.1470823758639943 0 0 0
85 1 11.004142910579164 7.860789976398151 4.731472362390948 0 0 0
86 1 12.575520019223257 6.2886099871250405 3.1470738699477767 0 0 0
87 1 14.151715767494466 7.856509533293378 4.718450190813115 0 0 0
88 1 15.721355445596206 6.287038422692944 3.1420147091393598 0 0 0
89 1 17.29771949746705 7.856426285147997 4.712569080321164 0 0 0
90 1 18.8660540399501 6.286723570985586 3.140690343429399 0 0 0
91 1 20.43867765465925 7.858254304806663 4.712662201203132 0 0 0
92 1 22.008909753676782 9.431942373085702 3.141377224192775 -1 0 0
93 1 3.14303550418461 9.432004134084556 3.142180612862717 0 0 0
94 1 6.288651474046533 9.43294920457864 3.1470823758639948 0 0 0
95 1 9.43511107105695 9.43511107105695 3.1631857832746184 0 0 0
96 1 12.573158610287049 9.435058424943815 3.1631917878435707 0 0 0
97 1 15.71960981541688 9.432863442640517 3.1470683257018206 0 0 0
344 1 1.5718228458892975 11.00439127873003 1.570389037857663 0 0 0
345 1 4.717187800941568 11.00432982783757 1.5723420139909088 0 0 0
346 1 7.86315620235817 11.00421875116449 1.5797348480276605 0 0 0
46 1 9.43434367096873 9.43434367096873 0.005264313476377004 0 0 0
45 1 6.290851227919314 9.43354876085497 0.0013555083317482904 0 0 0
37 1 12.575071296084 6.2908088402954885 0.0013525194402794296 0 0 0
35 1 9.43354876085497 6.290851227919313 0.0013555083317482815 0 0 0
127 1 1.570058326224282 1.5700583262242829 7.859035024907601 0 0 0
128 1 4.711961259169824 1.5688440175509997 7.858707635551818 0 0 0
129 1 7.8564701070686995 1.5668081411731787 7.858486285902015 0 0 0
130 1 11.004252693966196 1.565850907527641 7.858560389545254 0 0 0
131 1 14.152015846995923 1.5667619780893824 7.858496939342981 0 0 0
132 1 17.29652225757941 1.5687707675265148 7.85872954405514 0 0 0
133 1 20.438425164687843 1.57001983848075 7.859045937051651 0 0 0
134 1 1.568844017551 4.711961259169825 7.858707635551819 0 0 0
135 1 4.708066316997957 4.708066316997958 7.857946230614193 0 0 0
136 1 7.850961438135335 4.699392643824447 7.8572510018886925 0 0 0
137 1 11.004160038151369 4.694917435278666 7.858683970874124 0 0 0
138 1 14.157371917626103 4.699363167193628 7.857235854358601 0 0 0
139 1 17.300280041010165 4.707992067613372 7.8579337413434365 0 0 0
140 1 20.439510643129946 4.7119206039459245 7.858718488193481 0 0 0
141 1 1.5668081411731785 7.8564701070686995 7.858486285902015 0 0 0
142 1 4.699392643824447 7.850961438135335 7.857251001888693 0 0 0
143 1 7.823220716436495 7.823220716436495 7.846305366322681 0 0 0
144 1 11.004091989864424 7.803545204310669 7.8543412552644725 0 0 0
145 1 14.184972223183882 7.823136579354131 7.846351602669838 0 0 0
146 1 17.308768411295905 7.850892025733516 7.857236344329844 0 0 0
147 1 20.441365797688526 7.856425382271857 7.858489736504269 0 0 0
687 3 11.004009730187715 11.004009730187715 9.432662999999994 0 0 0
149 1 1.5700583262242824 1.5700583262242829 11.006290975092401 0 0 0
544 1 14.147350652499567 11.004088417223283 14.13385727210996 0 0 0
151 1 4.711961259169824 1.5688440175510003 11.006618364448183 0 0 0
543 1 11.004093644254509 11.004093644254509 14.09048916597104 0 0 0
153 1 7.8564701070686995 1.5668081411731787 11.006839714097984 0 0 0
245 1 18.872117389691663 9.429710141625478 12.580271275235019 0 0 0
155 1 11.004252693966196 1.565850907527641 11.006765610454748 0 0 0
244 1 15.737225981565732 9.424353962476234 12.579456850617431 0 0 0
157 1 14.152015846995923 1.5667619780893836 11.00682906065702 0 0 0
243 1 12.594752615230055 9.413346836475588 12.537394401116785 0 0 0
159 1 17.29652225757941 1.5687707675265148 11.00659645594486 0 0 0
542 1 7.860789976398151 11.004142910579166 14.133853637609054 0 0 0
161 1 20.438425164687843 1.5700198384807502 11.006280062948349 0 0 0
162 1 22.008986522311893 3.1409919782292457 9.432663 -1 0 0
163 1 1.5688440175510001 4.711961259169826 11.006618364448183 0 0 0
164 1 3.139737354282931 3.139737354282932 9.432663 0 0 0
165 1 4.708066316997958 4.708066316997958 11.007379769385807 0 0 0
166 1 6.281589438984515 3.135626739262213 9.432663000000002 0 0 0
167 1 7.850961438135335 4.699392643824447 11.008074998111308 0 0 0
168 1 9.428588850792595 3.1306403319379377 9.432663000000002 0 0 0
169 1 11.004160038151369 4.694917435278666 11.006642029125876 0 0 0
170 1 12.579814277874197 3.1306270234228255 9.432663 0 0 0
171 1 14.1573719176261 4.699363167193628 11.0080901456414 0 0 0
172 1 15.72679324907283 3.135582155945635 9.432663000000002 0 0 0
173 1 17.300280041010165 4.707992067613372 11.007392258656564 0 0 0
174 1 18.868667804688602 3.1396814160700717 9.432663000000002 0 0 0
175 1 20.43951064312995 4.7119206039459245 11.00660751180652 0 0 0
176 1 22.008899462477203 6.2840934402284025 9.432663000000002 -1 0 0
177 1 1.566808141173178 7.8564701070687 11.006839714097985 0 0 0
178 1 3.1356267392622126 6.281589438984516 9.432663000000002 0 0 0
179 1 4.699392643824446 7.850961438135336 11.008074998111308 0 0 0
180 1 6.271266375083566 6.271266375083567 9.432663 0 0 0
181 1 7.823220716436495 7.823220716436495 11.01902063367732 0 0 0
182 1 9.418885081116384 6.253125249135995 9.432663 0 0 0
183 1 11.004091989864424 7.803545204310668 11.010984744735529 0 0 0
184 1 12.589344163155337 6.2530682842399665 9.432663 0 0 0
185 1 14.184972223183882 7.82313657935413 11.018974397330162 0 0 0
186 1 15.737016920971987 6.271165889601568 9.432663000000002 0 0 0
187 1 17.3087684112959 7.850892025733517 11.008089655670156 0 0 0
188 1 18.872611820662794 6.281532438278425 9.432663 0 0 0
189 1 20.441365797688526 7.8564253822718575 11.006836263495734 0 0 0
190 1 22.008810591107498 9.430273507808147 9.432663 -1 0 0
191 1 3.1306403319379372 9.428588850792595 9.432663 0 0 0
192 1 6.253125249135995 9.418885081116384 9.432663000000002 0 0 0
193 1 9.312220036320722 9.312220036320724 9.432663 0 0 0
194 1 12.695836880419298 9.31218169966743 9.432663 0 0 0
195 1 15.754952914178467 9.418812254163601 9.432663000000002 0 0 0
196 1 18.877411124309813 9.428518658078445 9.432663000000002 0 0 0
242 1 9.413387602374772 9.413387602374772 12.53743379987887 0 0 0
198 1 1.5706059411672315 1.5706059411672324 14.152516433570902 0 0 0
541 1 4.7117648442177344 11.004235028941162 14.149956812607368 0 0 0
200 1 4.713424057165594 1.5699019708825281 14.153027914790155 0 0 0
540 1 1.5697298756350175 11.004325094360098 14.152165611723865 0 0 0
202 1 7.858295126918809 1.5696087670442456 14.152676025232292 0 0 0
241 1 6.270899712774284 9.424429840815424 12.57944834431949 0 0 0
204 1 11.0043250943601 1.569729875635018 14.152165611723866 0 0 0
240 1 3.1360058694462305 9.429771137235381 12.580280440976425 0 0 0
206 1 14.150339728589216 1.5695421098033424 14.152655408762033 0 0 0
239 1 22.00884032004883 9.430791326134548 12.580053875517171 -1 0 0
208 1 17.29518336479198 1.5698274936212664 14.153006372258773 0 0 0
495 1 14.204477064457642 11.004013799187726 11.010990639101482 0 0 0
210 1 20.43798092374291 1.5705769040828064 14.152513410827327 0 0 0
211 1 22.009013474742932 3.1414504027588057 12.579759358402146 -1 0 0
212 1 1.5699019708825277 4.713424057165594 14.153027914790155 0 0 0
213 1 3.1404538345263857 3.140453834526386 12.580183055205048 0 0 0
214 1 4.710965294695061 4.710965294695062 14.154552696863716 0 0 0
215 1 6.282973411034618 3.1374521298953644 12.581034393641017 0 0 0
216 1 7.856498854512407 4.710572605447759 14.15274848503755 0 0 0
217 1 9.42977113723538 3.1360058694462305 12.580280440976425 0 0 0
218 1 11.004235028941162 4.7117648442177344 14.149956812607368 0 0 0
219 1 12.578717034417258 3.135987887352064 12.580273499112492 0 0 0
220 1 14.151981823966658 4.710510332048264 14.15275573908608 0 0 0
221 1 15.725510460356567 3.1373874851334405 12.581010184443848 0 0 0
222 1 17.297531817482785 4.71087462761903 14.154537943061117 0 0 0
223 1 18.86803453748567 3.140384565949224 12.58015586554187 0 0 0
224 1 20.438589233093023 4.713387616347444 14.153008934892744 0 0 0
225 1 22.00893678790267 6.284901391184488 12.580165778725506 -1 0 0
226 1 1.5696087670442467 7.858295126918808 14.152676025232292 0 0 0
227 1 3.137452129895364 6.282973411034618 12.581034393641017 0 0 0
228 1 4.710572605447758 7.856498854512408 14.15274848503755 0 0 0
229 1 6.274382163265848 6.274382163265848 12.585380869447247 0 0 0
230 1 7.8565744506648825 7.8565744506648825 14.14688379692469 0 0 0
231 1 9.424429840815426 6.270899712774284 12.57944834431949 0 0 0
232 1 11.004142910579166 7.860789976398152 14.133853637609052 0 0 0
233 1 12.58387612573984 6.270873717236453 12.579456802336868 0 0 0
234 1 14.151715767494466 7.856509533293378 14.146875809186884 0 0 0
235 1 15.733930727165745 6.274315504048551 12.585402632865506 0 0 0
236 1 17.29771949746705 7.856426285147996 14.152756919678836 0 0 0
237 1 18.870862173857024 6.282907809393349 12.581021484939285 0 0 0
238 1 20.43867765465925 7.858254304806662 14.15266379879687 0 0 0
463 1 1.5658509075276403 11.004252693966196 7.858560389545253 0 0 0
465 1 7.803545204310669 11.004091989864424 7.8543412552644725 0 0 0
466 1 11.003994001183516 11.003994001183516 7.670222012229343 0 0 0
467 1 14.204477064457642 11.004013799187728 7.85433536089852 0 0 0
491 1 1.5658509075276408 11.004252693966196 11.006765610454748 0 0 0
493 1 7.803545204310668 11.004091989864426 11.01098474473553 0 0 0
494 1 11.003994001183516 11.003994001183518 11.195103987770663 0 0 0
464 1 4.694917435278666 11.004160038151369 7.858683970874124 0 0 0
468 1 17.313083387514332 11.004101323928792 7.858682833515533 0 0 0
469 1 20.44217337971025 11.004197411708104 7.858565568410926 0 0 0
492 1 4.694917435278666 11.004160038151369 11.006642029125876 0 0 0
496 1 17.313083387514332 11.004101323928793 11.006643166484467 0 0 0
497 1 20.44217337971025 11.004197411708104 11.006760431589077 0 0 0
545 1 17.296369614831146 11.004151040161963 14.149965186443097 0 0 0
546 1 20.438406720730818 11.004270015937593 14.152171602267694 0 0 0
643 1 17.29015684174193 11.004293959100867 20.4374365 0 0 0
247 1 1.5715011892573931 1.571501189257394 17.29617574458147 0 0 0
642 1 14.14521054116728 11.004197139008925 20.437436499999997 0 0 0
249 1 4.715812740025669 1.5716116589226716 17.295982707647873 0 0 0
343 1 18.863313898624714 9.432732309770886 18.865916284513137 0 0 0
251 1 7.860348534154001 1.5718333145480619 17.295300001042797 0 0 0
342 1 15.717541269878957 9.433473382764511 18.863969621920397 0 0 0
253 1 11.004391278730031 1.571822845889297 17.294936962142337 0 0 0
341 1 12.574041014829216 9.434303793950471 18.860060026577596 0 0 0
255 1 14.14842570542212 1.5717655991606232 17.29528548372855 0 0 0
340 1 9.43434367096873 9.43434367096873 18.860061686523625 0 0 0
257 1 17.29294602217146 1.5715329672750813 17.29598278108872 0 0 0
339 1 6.290851227919313 9.43354876085497 18.863970491668255 0 0 0
259 1 20.437249697679658 1.5714691099856604 17.296181323091492 0 0 0
260 1 22.009091138462864 3.142761798590746 15.724788554596248 -1 0 0
261 1 1.571611658922671 4.715812740025668 17.295982707647873 0 0 0
262 1 3.1423283218143236 3.1423283218143245 15.725185328699474 0 0 0
263 1 4.716163888983273 4.716163888983272 17.29572303000182 0 0 0
264 1 6.2867971673608185 3.142423834095005 15.724658831456631 0 0 0
265 1 7.861035842409888 4.7171353082093255 17.294008380664295 0 0 0
266 1 9.432004134084556 3.1430355041846094 15.723145387137285 0 0 0
267 1 11.00432982783757 4.717187800941568 17.292983986009094 0 0 0
268 1 12.576665450708013 3.142995579622883 15.723134963778767 0 0 0
269 1 14.147630259623583 4.717054119110062 17.29400375519231 0 0 0
270 1 15.721866832922169 3.142339080624689 15.724632156933312 0 0 0
271 1 17.292500778983012 4.7160741065749505 17.29571642092911 0 0 0
272 1 18.866324486897906 3.1422677690263536 15.725179206249171 0 0 0
273 1 20.43704792163816 4.7157840426982585 17.295978497230767 0 0 0
274 1 22.00901173906914 6.287059045661364 15.724558425200671 -1 0 0
275 1 1.5718333145480614 7.860348534154001 17.295300001042797 0 0 0
276 1 3.142423834095005 6.2867971673608185 15.724658831456631 0 0 0
277 1 4.717135308209325 7.861035842409888 17.29400838066429 0 0 0
278 1 6.287127727584643 6.287127727584644 15.723306606031493 0 0 0
279 1 7.862829711256111 7.862829711256111 17.2894035439867 0 0 0
280 1 9.43294920457864 6.2886514740465325 15.718243624136006 0 0 0
281 1 11.00421875116449 7.86315620235817 17.28559115197234 0 0 0
282 1 12.575520019223257 6.2886099871250405 15.718252130052225 0 0 0
283 1 14.145611175102209 7.862749100722205 17.28940929198842 0 0 0
284 1 15.721355445596206 6.287038422692944 15.723311290860641 0 0 0
285 1 17.29130650431897 7.860946821910995 17.29401037791928 0 0 0
286 1 18.8660540399501 6.286723570985585 15.724635656570602 0 0 0
287 1 20.436601834089842 7.860306301011328 17.29529550918616 0 0 0
288 1 22.008909753676782 9.431942373085702 15.723948775807226 -1 0 0
289 1 3.1430355041846103 9.432004134084558 15.723145387137285 0 0 0
290 1 6.2886514740465325 9.432949204578641 15.718243624136006 0 0 0
291 1 9.43511107105695 9.43511107105695 15.702140216725383 0 0 0
292 1 12.57315861028705 9.435058424943815 15.70213421215643 0 0 0
293 1 15.71960981541688 9.43286344264052 15.718257674298181 0 0 0
294 1 18.865234371153417 9.431926854986232 15.723151054052218 0 0 0
44 1 3.145077825103997 9.432795495730266 22.008957380156613 0 0 -1
296 1 1.5720334376591694 1.5720334376591698 20.4374365 0 0 0
338 1 3.145077825103997 9.432795495730266 18.86591561984339 0 0 0
298 1 4.716797223632002 1.5722143511282494 20.4374365 0 0 0
43 1 22.008969383263246 9.432587262558897 22.008537225206638 -1 0 -1
300 1 7.860931385848252 1.5723474921179608 20.4374365 0 0 0
641 1 11.004174623076926 11.004174623076926 20.4374365 0 0 0
302 1 11.004420354882797 1.5723294788051458 20.4374365 0 0 0
640 1 7.863134394116835 11.004264642058445 20.4374365 0 0 0
304 1 14.147891247801462 1.5722799257272757 20.437436499999997 0 0 0
33 1 6.2902261508838135 6.2902261508838135 22.009426938874704 0 0 -1
306 1 17.29201791128837 1.5721266155437053 20.4374365 0 0 0
337 1 22.008969383263246 9.432587262558895 18.86633577479336 -1 0 0
308 1 20.436800130707322 1.5719956241770385 20.4374365 0 0 0
309 1 22.00916482198589 3.144176334821125 18.866894811889747 -1 0 0
310 1 1.5722143511282498 4.716797223632003 20.4374365 0 0 0
311 1 3.144359619244627 3.144359619244627 18.86686351097241 0 0 0
312 1 4.717460481094779 4.71746048109478 20.4374365 0 0 0
313 1 6.289064337684126 3.1448845115244732 18.86642278141131 0 0 0
314 1 7.861717043858224 4.718143471591397 20.4374365 0 0 0
315 1 9.432795495730266 3.1450778251039964 18.86591561984339 0 0 0
316 1 11.00436593040633 4.718199884246666 20.437436499999997 0 0 0
317 1 12.575989478367463 3.145043078707196 18.865910326151578 0 0 0
318 1 14.147014494896142 4.71807833110212 20.437436499999997 0 0 0
319 1 15.71971333511852 3.1448005781599324 18.866417228698875 0 0 0
320 1 17.291260651982398 4.7173836792351596 20.4374365 0 0 0
321 1 18.86442288698735 3.1443006825190447 18.866869068184084 0 0 0
322 1 20.436502364550996 4.71677407543749 20.4374365 0 0 0
323 1 22.00907292706081 6.288673378691986 18.86660054957435 -1 0 0
324 1 1.5723474921179603 7.860931385848251 20.4374365 0 0 0
325 1 3.1448845115244732 6.289064337684126 18.86642278141131 0 0 0
326 1 4.718143471591397 7.861717043858224 20.4374365 0 0 0
327 1 6.290226150883813 6.2902261508838135 18.865446061125297 0 0 0
328 1 7.862915010301303 7.862915010301304 20.437436499999997 0 0 0
329 1 9.43354876085497 6.290851227919314 18.863970491668255 0 0 0
330 1 11.004264642058443 7.863134394116835 20.4374365 0 0 0
331 1 12.575071296084 6.2908088402954885 18.86397348055972 0 0 0
332 1 14.14560916487209 7.862860229223866 20.437436499999997 0 0 0
333 1 15.718385807315052 6.290141382327932 18.865446976211825 0 0 0
334 1 17.29036692733691 7.8616501580500575 20.437436499999997 0 0 0
335 1 18.86371295034223 6.289007382653362 18.86641817076174 0 0 0
336 1 20.436160489737436 7.86090364228262 20.4374365 0 0 0
638 1 1.5723294788051463 11.004420354882797 20.437436499999997 0 0 0
639 1 4.718199884246667 11.004365930406328 20.4374365 0 0 0
644 1 20.43603013431835 11.004386871187672 20.437436499999997 0 0 0
31 1 3.1448845115244732 6.289064337684126 22.008450218588692 0 0 -1
15 1 22.00916482198589 3.1441763348211254 22.007978188110254 -1 0 -1
19 1 6.289064337684126 3.1448845115244737 22.008450218588692 0 0 -1
21 1 9.432795495730268 3.1450778251039977 22.008957380156613 0 0 -1
23 1 12.575989478367463 3.145043078707197 22.00896267384842 0 0 -1
25 1 15.719713335118518 3.1448005781599315 22.008455771301122 0 0 -1
589 1 1.5718228458892969 11.004391278730031 17.294936962142337 0 0 0
590 1 4.717187800941569 11.004329827837571 17.292983986009094 0 0 0
591 1 7.86315620235817 11.00421875116449 17.28559115197234 0 0 0
592 1 11.004130896603224 11.004130896603225 17.276543821111755 0 0 0
593 1 14.145094907429224 11.004141523372917 17.28559153612708 0 0 0
594 1 17.291084677066742 11.004241385682931 17.292992208448972 0 0 0
595 1 20.436449147690297 11.004348152141105 17.29494433879442 0 0 0
17 1 3.144359619244627 3.1443596192446277 22.00800948902759 0 0 -1
27 1 18.86442288698735 3.1443006825190443 22.008003931815917 0 0 -1
29 1 22.00907292706081 6.2886733786919855 22.00827245042565 -1 0 -1
39 1 15.718385807315052 6.290141382327933 22.009426023788176 0 0 -1
41 1 18.86371295034223 6.289007382653363 22.00845482923826 0 0 -1
49 1 18.863313898624714 9.432732309770886 22.008956715486864 0 0 -1
62 1 18.86589837744975 22.009037043193295 3.1405344453082953 0 -1 0
60 1 15.721625574287248 22.008926924412403 3.140768694554575 0 -1 0
58 1 12.576756876206847 22.008864350432745 3.1413823934111114 0 -1 0
56 1 9.431942373085702 22.008909753676782 3.1413772241927753 0 -1 0
54 1 6.287059045661365 22.00901173906914 3.1407675747993298 0 -1 0
52 1 3.142761798590746 22.009091138462864 3.140537445403753 0 -1 0
99 1 22.009027658086787 22.009027658086787 6.285818253165597 -1 -1 0
100 1 3.141450402758805 22.009013474742932 6.285566641597855 0 -1 0
352 1 1.5717655991606232 14.14842570542212 1.570040516271453 0 0 0
104 1 15.723628946069248 22.00885642361397 6.285179692427735 0 -1 0
354 1 4.717054119110062 14.147630259623583 1.5713222448076898 0 0 0
103 1 12.577758830334574 22.008803412276897 6.285276866685449 0 -1 0
356 1 7.862749100722206 14.145611175102209 1.5759167080115812 0 0 0
357 1 9.434303793950471 12.574041014829216 0.0052659734224038204 0 0 0
358 1 11.004141523372915 14.145094907429224 1.5797344638729234 0 0 0
359 1 12.574001669103492 12.574001669103492 0.005268856722450697 0 0 0
360 1 14.145545463936942 14.145545463936944 1.5759148322863146 0 0 0
361 1 15.717497698370915 12.574979391166002 0.0013586302064223402 0 0 0
362 1 17.29123941419099 14.147540745911 1.5713252528699655 0 0 0
101 1 6.284901391184488 22.00893678790267 6.285160221274495 0 -1 0
364 1 20.436526969194635 14.14838698559996 1.5700358131747054 0 0 0
50 1 22.00910009871809 22.00910009871809 3.140740766151337 -1 -1 0
366 1 1.5715329672750808 17.29294602217146 1.5693432189112808 0 0 0
102 1 9.430791326134548 22.00884032004883 6.285272124482831 0 -1 0
368 1 4.716074106574951 17.292500778983012 1.5696095790708895 0 0 0
105 1 18.867067457521422 22.008957004196898 6.285571902156567 0 -1 0
370 1 7.8609468219109955 17.29130650431897 1.5713156220807212 0 0 0
371 1 9.433473382764511 15.717541269878957 0.0013563780796040333 0 0 0
372 1 11.004241385682931 17.291084677066745 1.572333791551033 0 0 0
373 1 12.574979391166002 15.717497698370916 0.001358630206421857 0 0 0
374 1 14.147540745911 17.29123941419099 1.5713252528699648 0 0 0
455 1 18.870783848942516 15.725432490443948 6.284311613185711 0 0 0
376 1 17.29241279365843 17.29241279365843 1.569612156648623 0 0 0
454 1 15.733864355367142 15.73386435536714 6.279919943183085 0 0 0
378 1 20.436950197083025 17.292904163304097 1.5693438453298194 0 0 0
453 1 12.583807036323313 15.737188828275004 6.285865868763002 0 0 0
380 1 1.5714691099856608 20.437249697679658 1.5691446769085085 0 0 0
452 1 9.424353962476234 15.737225981565732 6.28586914938257 0 0 0
382 1 4.7157840426982585 20.43704792163816 1.5693475027692356 0 0 0
451 1 6.274315504048551 15.733930727165745 6.2799233671344945 0 0 0
384 1 7.860306301011328 20.43660183408984 1.5700304908138412 0 0 0
450 1 3.137387485133441 15.725510460356569 6.2843158155561545 0 0 0
386 1 11.004348152141107 20.4364491476903 1.570381661205582 0 0 0
449 1 22.00885642361397 15.72362894606925 6.285179692427735 -1 0 0
388 1 14.14838698559996 20.436526969194635 1.5700358131747052 0 0 0
448 1 18.87208248046228 12.578630805321719 6.285050614131076 0 0 0
390 1 17.292904163304097 20.436950197083025 1.5693438453298196 0 0 0
447 1 15.737188828275006 12.583807036323314 6.285865868763002 0 0 0
392 1 20.437215501018564 20.43721550101856 1.5691385155835558 0 0 0
462 1 18.867972551341452 18.867972551341452 6.2851581992053145 0 0 0
461 1 15.725432490443948 18.870783848942516 6.284311613185711 0 0 0
460 1 12.578630805321723 18.87208248046228 6.285050614131076 0 0 0
459 1 9.429710141625478 18.872117389691663 6.285054724764983 0 0 0
458 1 6.282907809393348 18.870862173857024 6.2843045150607155 0 0 0
457 1 3.1403845659492235 18.86803453748567 6.2851701344581326 0 0 0
456 1 22.008957004196898 18.867067457521422 6.285571902156566 -1 0 0
400 1 22.008864350432745 12.576756876206847 3.1413823934111123 -1 0 0
401 1 1.5695421098033433 14.150339728589216 4.712670591237968 0 0 0
402 1 3.1429955796228835 12.576665450708013 3.142191036221233 0 0 0
403 1 4.710510332048263 14.151981823966658 4.712570260913919 0 0 0
404 1 6.2886099871250405 12.575520019223255 3.1470738699477767 0 0 0
405 1 7.856509533293379 14.151715767494466 4.7184501908131145 0 0 0
406 1 9.435058424943815 12.57315861028705 3.1631917878435707 0 0 0
407 1 11.004088417223281 14.147350652499568 4.73146872789004 0 0 0
408 1 12.57313453134483 12.57313453134483 3.1631822795536824 0 0 0
409 1 14.151656469957798 14.151656469957798 4.7184386917676475 0 0 0
410 1 15.719580299080565 12.575426876969727 3.1470617656291293 0 0 0
411 1 17.297654058903028 14.151885361577165 4.712569291778266 0 0 0
412 1 18.865194823362426 12.576585524513483 3.1421772687943057 0 0 0
413 1 20.438606321835124 14.150289637009328 4.712666392802484 0 0 0
414 1 22.008926924412403 15.721625574287247 3.1407686945545756 -1 0 0
415 1 1.5698274936212673 17.29518336479198 4.712319627741229 0 0 0
416 1 3.14233908062469 15.721866832922169 3.140693843066688 0 0 0
417 1 4.710874627619031 17.297531817482785 4.710788056938886 0 0 0
418 1 6.2870384226929446 15.721355445596206 3.14201470913936 0 0 0
419 1 7.856426285147996 17.29771949746705 4.712569080321165 0 0 0
420 1 9.43286344264052 15.719609815416883 3.1470683257018206 0 0 0
421 1 11.004151040161963 17.296369614831146 4.715360813556904 0 0 0
422 1 12.575426876969727 15.719580299080565 3.147061765629129 0 0 0
423 1 14.151885361577165 17.297654058903028 4.712569291778266 0 0 0
424 1 15.721267269089712 15.72126726908971 3.142015617053073 0 0 0
425 1 17.297453836952556 17.297453836952556 4.710783569505806 0 0 0
426 1 18.865965979913007 15.721801794919571 3.1406934820430603 0 0 0
427 1 20.438516201357626 17.29514088076416 4.712319946833953 0 0 0
428 1 22.009037043193295 18.86589837744975 3.1405344453082953 -1 0 0
429 1 1.5705769040828057 20.437980923742913 4.7128125891726755 0 0 0
430 1 3.1422677690263545 18.86632448689791 3.140146793750831 0 0 0
431 1 4.713387616347444 20.438589233093023 4.712317065107257 0 0 0
432 1 6.286723570985585 18.8660540399501 3.1406903434293993 0 0 0
433 1 7.858254304806662 20.43867765465925 4.712662201203132 0 0 0
434 1 9.431926854986232 18.865234371153417 3.142174945947783 0 0 0
435 1 11.004270015937593 20.438406720730814 4.713154397732308 0 0 0
436 1 12.576585524513483 18.865194823362426 3.142177268794306 0 0 0
437 1 14.15028963700933 20.438606321835124 4.712666392802484 0 0 0
438 1 15.721801794919573 18.865965979913007 3.140693482043061 0 0 0
439 1 17.29514088076416 20.43851620135763 4.712319946833953 0 0 0
440 1 18.866265035051164 18.86626503505116 3.1401480196077305 0 0 0
441 1 20.437947922471295 20.437947922471295 4.712809681156449 0 0 0
442 1 22.008803412276897 12.577758830334574 6.285276866685449 -1 0 0
443 1 3.135987887352063 12.57871703441726 6.285052500887509 0 0 0
444 1 6.270873717236453 12.58387612573984 6.285869197663132 0 0 0