LAMMPS data file via write_data, version 2 Aug 2023, timestep = 58, units = metal

687 atoms
3 atom types

0 22.009546999999998 xlo xhi
0 22.009546999999998 ylo yhi
0 22.009546999999998 zlo zhi

Masses

1 183.84
2 1.008
3 4.0026

Atoms # atomic

126 1 18.880304413234157 9.43385091515988 6.28357654397333 0 0 0
2 1 1.555709659671394 1.5557096596713929 1.5654607367593185 0 0 0
97 1 15.755771521109532 9.433339905938597 3.113208341815157 0 0 0
4 1 4.705203567209272 1.55606841156826 1.5633270688935959 0 0 0
96 1 12.620704294173434 9.428506843409762 3.095097238822308 0 0 0
6 1 7.85869680552146 1.5637261311621349 1.5649721679679227 0 0 0
95 1 9.416457132887507 9.416457132887503 3.059649014175165 0 0 0
8 1 11.007996773344914 1.5707020432038346 1.5677969360181103 0 0 0
94 1 6.271042701836202 9.433390287728242 3.1126832512914273 0 0 0
10 1 14.155157158460288 1.572857982219879 1.5699822965827208 0 0 0
93 1 3.13362043013641 9.434506382694241 3.1311373719168514 0 0 0
12 1 17.295510772085436 1.5728689653839236 1.5740006535964393 0 0 0
92 1 0.002796444021250949 9.432844687660673 3.1411129067802968 0 0 0
14 1 20.43163408084789 1.5669453975931538 1.573358091917743 0 0 0
117 1 12.538533930393513 6.343140628336899 6.318721363608824 0 0 0
16 1 1.556068411568263 4.705203567209268 1.5633270688935974 0 0 0
116 1 9.521672050343406 6.290898984236678 6.267846086608494 0 0 0
18 1 4.687459702450565 4.687459702450563 1.5389846636637154 0 0 0
115 1 6.09438900836653 6.094389008366524 6.140033520343722 0 0 0
20 1 7.855137070653296 4.6989246900519674 1.5531770250403516 0 0 0
114 1 3.116705593766834 6.254725403063647 6.260620319828085 0 0 0
22 1 11.009113781245373 4.7073810163702765 1.5588908597390605 0 0 0
113 1 22.00002602782059 6.282764105606086 6.286682916057092 -1 0 0
24 1 14.160613633883507 4.707391584095735 1.5633454113758778 0 0 0
62 1 18.864624180031218 0.0016198793499314582 3.14878495708498 0 0 0
26 1 17.304292655340916 4.7076731920426385 1.5657866292726819 0 0 0
112 1 18.856790025608973 3.14797300721648 6.293705005342137 0 0 0
28 1 20.435729737120578 4.710303998900347 1.5699938403430895 0 0 0
111 1 15.715285003375765 3.155275515156877 6.294711066953316 0 0 0
30 1 1.5637261311621364 7.8586968055214586 1.5649721679679227 0 0 0
110 1 12.579868762744349 3.150629252354346 6.283536900770442 0 0 0
32 1 4.6989246900519674 7.855137070653295 1.5531770250403532 0 0 0
109 1 9.426587340033313 3.1407948457813517 6.277049303451374 0 0 0
34 1 7.842580089746632 7.842580089746633 1.5361414612097268 0 0 0
108 1 6.254725403063645 3.11670559376683 6.260620319828086 0 0 0
36 1 11.017653791555441 7.85294420537706 1.5393413562265785 0 0 0
107 1 3.1194623694965755 3.1194623694965746 6.282771423461846 0 0 0
38 1 14.171478695355939 7.852741465925523 1.5449237276626873 0 0 0
106 1 21.996051325769056 3.137175313426464 6.290432083635913 -1 0 0
40 1 17.31101648457545 7.85712652602404 1.5610238734809814 0 0 0
118 1 15.714715792276051 6.2975227246573775 6.2935221175106495 0 0 0
42 1 20.442300490764843 7.859153740880517 1.5684439152407201 0 0 0
119 1 18.8613652624463 6.290942084719705 6.290928893103147 0 0 0
103 1 12.577633731120775 0.011031733558970051 6.289684832925432 0 0 0
102 1 9.429360079912668 0.004453741301147389 6.287353433870648 0 0 0
120 1 0.004453741301149237 9.429360079912668 6.287353433870649 0 0 0
121 1 3.1407948457813553 9.426587340033318 6.277049303451377 0 0 0
122 1 6.290898984236681 9.52167205034343 6.267846086608491 0 0 0
98 1 18.882292125157218 9.434219971216029 3.136295973862635 0 0 0
125 1 15.7605016533463 9.43026869809639 6.245806848768567 0 0 0
51 1 1.5572554273010835 1.5572554273010812 4.714885992655699 0 0 0
124 1 12.741821706029704 9.407731691046385 6.000464100064516 0 0 0
53 1 4.698146785544785 1.5431400116880751 4.704524174678431 0 0 0
91 1 20.442642295733958 7.85846773465034 4.71375093159159 0 0 0
55 1 7.8547336280228635 1.5645547333975822 4.708994251684479 0 0 0
56 1 9.432844687660673 0.002796444021248942 3.1411129067802968 0 0 0
57 1 11.00526049112406 1.5740620437138393 4.714334039379572 0 0 0
58 1 12.580845633100305 0.0076687124399732525 3.1430918619420334 0 0 0
59 1 14.150975799836191 1.578514143388056 4.717443436513683 0 0 0
60 1 15.725484700572743 0.007789930386371718 3.1460467841561366 0 0 0
61 1 17.29086290280947 1.5766834299934425 4.721597961840578 0 0 0
123 1 9.347028311437978 9.347028311437976 5.761865359012825 0 0 0
63 1 20.42978129783101 1.5693337655096982 4.720481377991181 0 0 0
64 1 21.994125855433445 3.133359209036137 3.1410497519587683 -1 0 0
65 1 1.5431400116880762 4.698146785544785 4.704524174678434 0 0 0
66 1 3.1088332673692247 3.108833267369224 3.1170783511491917 0 0 0
67 1 4.637137228951059 4.63713722895106 4.637071474340263 0 0 0
68 1 6.2779975687376535 3.118404669130745 3.1231263331075367 0 0 0
69 1 7.863276632727539 4.692758858925184 4.6854097197731 0 0 0
70 1 9.43450638269424 3.13362043013641 3.131137371916852 0 0 0
71 1 11.019408223638933 4.702632869299414 4.695893666679049 0 0 0
72 1 12.584197058243099 3.1379650355626443 3.1357105244618704 0 0 0
73 1 14.144066626832123 4.721297954892408 4.723719617440742 0 0 0
74 1 15.722899026977235 3.144769905551442 3.1468550213434194 0 0 0
75 1 17.29105938371536 4.718152841483641 4.720346224606446 0 0 0
76 1 18.861767455165413 3.1422622330290912 3.147182135771621 0 0 0
77 1 20.4282875969171 4.71296630304196 4.717654241562966 0 0 0
78 1 22.002246482873137 6.283393042865515 3.1395037446430916 -1 0 0
79 1 1.5645547333975867 7.854733628022865 4.70899425168448 0 0 0
80 1 3.1184046691307485 6.277997568737654 3.1231263331075385 0 0 0
81 1 4.692758858925188 7.863276632727543 4.685409719773103 0 0 0
82 1 6.235052250372008 6.235052250372006 3.076392174939858 0 0 0
83 1 7.744900151745591 7.744900151745594 4.6142463363926165 0 0 0
84 1 9.433390287728239 6.2710427018362 3.112683251291426 0 0 0
85 1 11.06177364503339 7.819190532419545 4.6271473482672905 0 0 0
86 1 12.599346237094226 6.266553453567371 3.1139238641477753 0 0 0
87 1 14.219384295146583 7.805035285166187 4.646603564399756 0 0 0
88 1 15.749994334911205 6.2681713252195355 3.1197607366785167 0 0 0
89 1 17.31811335309141 7.854615628356892 4.702256535306378 0 0 0
90 1 18.8741296714007 6.283141129861683 3.1392872980563915 0 0 0
105 1 18.861692469516147 0.0026240654328392723 6.293034451563962 0 0 0
104 1 15.720425107462404 0.009267597778278892 6.292355448806499 0 0 0
13 1 18.867081353886796 0.0010816402224929792 0.0010406491487251902 0 0 0
127 1 1.5592774451914093 1.5592774451914082 7.860592529725605 0 0 0
128 1 4.706215306201371 1.5571788635220685 7.860832059042871 0 0 0
129 1 7.849254151594415 1.5711664371021463 7.854411421495256 0 0 0
130 1 10.998308958554851 1.5759005464080866 7.861581319282563 0 0 0
131 1 14.144311648860551 1.5861335479012613 7.862117502244835 0 0 0
132 1 17.286313168606135 1.5808004670387306 7.864004128699136 0 0 0
133 1 20.42862929598042 1.5709321745708666 7.862758915149887 0 0 0
134 1 1.5571788635220734 4.706215306201376 7.860832059042872 0 0 0
135 1 4.678776649820109 4.678776649820108 7.872897456488444 0 0 0
136 1 7.808686302246819 4.702368915696539 7.7921156375775 0 0 0
137 1 11.015494013144785 4.684685426350767 7.842420981482281 0 0 0
138 1 14.128139826369521 4.74835914259177 7.865320297703663 0 0 0
139 1 17.279118662181435 4.730357360072999 7.866392453866805 0 0 0
140 1 20.427108736866266 4.717438612598881 7.862964444849727 0 0 0
141 1 1.5711664371021505 7.849254151594417 7.854411421495255 0 0 0
142 1 4.702368915696546 7.8086863022468185 7.792115637577496 0 0 0
143 1 7.591569262435925 7.591569262435937 7.394566308057816 0 0 0
144 1 10.75668602158292 8.36349892822799 7.894237330665773 0 0 0
145 1 14.113388675278392 7.908562682283139 7.840542249263851 0 0 0
146 1 17.285308591780968 7.871307493774818 7.85898143177603 0 0 0
147 1 20.436330426175036 7.860126664408516 7.860880104388422 0 0 0
687 3 10.319643203763501 10.319643203761428 9.432662940158751 0 0 0
149 1 1.559277445191443 1.5592774451914433 11.00473347027446 0 0 0
245 1 18.88030441323344 9.433850915160006 12.581749456026905 0 0 0
151 1 4.706215306201463 1.5571788635218082 11.004493940957092 0 0 0
244 1 15.76050165333014 9.430268698109284 12.619519151210167 0 0 0
153 1 7.849254151594709 1.5711664371016176 11.010914578504206 0 0 0
243 1 12.741821707501714 9.4077316906048 12.86486190185492 0 0 0
155 1 10.998308958554695 1.5759005464112434 11.003744680717054 0 0 0
156 1 12.576014571689841 0.010397607874471264 9.432662999999698 0 0 0
157 1 14.144311648860597 1.5861335479006 11.003208497754454 0 0 0
242 1 9.34702831159912 9.347028311599116 13.103460639921563 0 0 0
159 1 17.286313168606064 1.5808004670388196 11.001321871300755 0 0 0
241 1 6.2908989843247385 9.521672050371388 12.59747991334022 0 0 0
161 1 20.428629295980414 1.570932174570856 11.002567084850138 0 0 0
162 1 21.99650097067616 3.138490905337849 9.432663000000021 -1 0 0
163 1 1.5571788635218118 4.706215306201466 11.00449394095709 0 0 0
164 1 3.1197759683957984 3.1197759683957984 9.432662999999716 0 0 0
165 1 4.6787766498212635 4.678776649821262 10.992428543511668 0 0 0
166 1 6.2800050257111035 3.142404349894097 9.432662999999714 0 0 0
167 1 7.8086863022473505 4.70236891570054 11.073210362424994 0 0 0
168 1 9.407470325703823 3.1538475319438537 9.432663000000565 0 0 0
169 1 11.015494013153809 4.684685426236548 11.022905018528467 0 0 0
170 1 12.57241788767337 3.1563445353802013 9.432663000002993 0 0 0
171 1 14.128139826372118 4.748359142591399 11.000005702298013 0 0 0
172 1 15.708179926284625 3.163854218674275 9.43266299999924 0 0 0
173 1 17.279118662182523 4.730357360072484 10.998933546132871 0 0 0
174 1 18.85476799110752 3.1502086878730697 9.432662999999994 0 0 0
175 1 20.427108736866327 4.717438612598863 11.002361555150294 0 0 0
176 1 22.0041462319604 6.285532092047748 9.432662999999986 -1 0 0
177 1 1.5711664371016194 7.84925415159471 11.010914578504208 0 0 0
178 1 3.142404349894103 6.280005025711107 9.432662999999714 0 0 0
179 1 4.7023689157005455 7.80868630224735 11.073210362424998 0 0 0
180 1 6.308524180147811 6.3085241801478045 9.432663000018195 0 0 0
181 1 7.591569261157968 7.591569261157981 11.47075969267124 0 0 0
182 1 9.387817124407821 6.04015274746887 9.432662999844508 0 0 0
183 1 10.75668602518797 8.363498909986127 10.971088683517907 0 0 0
184 1 12.505642972656217 6.334188741246834 9.432663000001874 0 0 0
185 1 14.113388675761069 7.908562681977257 11.02478375092218 0 0 0
186 1 15.682291569211008 6.3244723476176805 9.43266300000665 0 0 0
187 1 17.28530859177238 7.871307493775234 11.006344568223561 0 0 0
188 1 18.85295290631662 6.296618079552585 9.432662999999984 0 0 0
189 1 20.43633042617496 7.860126664408597 11.00444589561163 0 0 0
190 1 0.006425991723952373 9.425861121014687 9.432662999999575 0 0 0
191 1 3.1538475319438506 9.407470325703821 9.432663000000565 0 0 0
192 1 6.040152747468827 9.387817124407803 9.432662999844508 0 0 0
193 1 8.586968780964314 8.58696878096427 9.43266299903219 0 0 0
194 1 12.664617958770956 9.513820689522316 9.432662999500511 0 0 0
195 1 15.724917069024384 9.455021287909442 9.432663000009667 0 0 0
196 1 18.870428075306958 9.435379742636629 9.432662999999971 0 0 0
240 1 3.140794845782182 9.426587340034855 12.588276696547965 0 0 0
198 1 1.5572554273011237 1.557255427301123 14.150440007344296 0 0 0
239 1 0.004453741300290367 9.429360079912373 12.577972566129743 0 0 0
200 1 4.698146785544803 1.5431400116883085 14.16080182532151 0 0 0
238 1 20.442642295733993 7.858467734650387 14.151575068408395 0 0 0
202 1 7.854733628022325 1.5645547333967462 14.156331748315987 0 0 0
203 1 9.429360079912373 0.004453741300289182 12.577972566129743 0 0 0
204 1 11.005260491123954 1.5740620437125223 14.150991960620967 0 0 0
205 1 12.577633731121047 0.01103173355802944 12.575641167074886 0 0 0
206 1 14.150975799837184 1.578514143386097 14.14788256348716 0 0 0
237 1 18.861365262446707 6.290942084719788 12.57439710689691 0 0 0
208 1 17.290862902809586 1.5766834299933166 14.143728038159352 0 0 0
236 1 17.318113353093377 7.854615628357388 14.163069464694297 0 0 0
210 1 20.429781297831028 1.5693337655097126 14.144844622008797 0 0 0
211 1 21.996051325769105 3.1371753134264795 12.5748939163641 -1 0 0
212 1 1.5431400116883083 4.698146785544803 14.160801825321506 0 0 0
213 1 3.1194623694963566 3.1194623694963584 12.582554576538588 0 0 0
214 1 4.637137228949317 4.637137228949318 14.228254525660372 0 0 0
215 1 6.254725403063882 3.1167055937672052 12.604705680171394 0 0 0
216 1 7.863276632725443 4.69275885892034 14.17991628023201 0 0 0
217 1 9.426587340034851 3.140794845782179 12.588276696547966 0 0 0
218 1 11.019408223638333 4.702632869297753 14.169432333323417 0 0 0
219 1 12.579868762743297 3.1506292523542685 12.581789099228281 0 0 0
220 1 14.144066626845825 4.721297954878004 14.14160638257296 0 0 0
221 1 15.715285003376895 3.1552755151562115 12.57061493304658 0 0 0
222 1 17.291059383716902 4.718152841483203 14.144979775393985 0 0 0
223 1 18.85679002560911 3.1479730072164376 12.571620994657806 0 0 0
224 1 20.42828759691721 4.712966303041954 14.147671758436996 0 0 0
225 1 22.00002602782046 6.2827641056060255 12.578643083942918 -1 0 0
226 1 1.5645547333967513 7.854733628022325 14.156331748315987 0 0 0
227 1 3.116705593767208 6.254725403063883 12.604705680171394 0 0 0
228 1 4.692758858920346 7.863276632725447 14.179916280232007 0 0 0
229 1 6.094389008485477 6.09438900848547 12.725292479556781 0 0 0
230 1 7.744900151744129 7.744900151744132 14.251079663566218 0 0 0
231 1 9.521672050371363 6.290898984324737 12.597479913340216 0 0 0
232 1 11.061773645052144 7.819190532406494 14.238178651757986 0 0 0
233 1 12.538533930201389 6.34314062858247 12.546604636222806 0 0 0
234 1 14.219384295079376 7.80503528524194 14.218722435544638 0 0 0
235 1 15.714715792268635 6.29752272466442 12.5718038824817 0 0 0
465 1 8.36349892822756 10.756686021583008 7.894237330665455 0 0 0
493 1 8.3634989099857 10.756686025188056 10.971088683518225 0 0 0
463 1 1.5759005464080853 10.998308958554851 7.861581319282563 0 0 0
207 1 15.720425107462432 0.009267597778234835 12.572970551193448 0 0 0
209 1 18.861692469516136 0.002624065432848318 12.572291548436043 0 0 0
491 1 1.575900546411242 10.998308958554693 11.003744680717055 0 0 0
154 1 9.425861121014687 0.006425991723952298 9.432662999999573 0 0 0
160 1 18.860669889584535 0.0029821395203546513 9.432663000000012 0 0 0
158 1 15.717729728855193 0.010501549990204776 9.432662999999982 0 0 0
343 1 18.878110753804854 9.434352370563468 18.869047164400964 0 0 0
247 1 1.5557096596714537 1.5557096596714548 17.29986526324061 0 0 0
342 1 15.740952554344835 9.43448765647874 18.875720880838855 0 0 0
249 1 4.705203567209129 1.5560684115680747 17.301998931106507 0 0 0
49 1 18.878110753804833 9.434352370563456 22.005825835599065 0 0 -1
251 1 7.858696805521396 1.5637261311617547 17.300353832032297 0 0 0
252 1 9.432844687660701 0.0027964440210835784 15.724213093219676 0 0 0
253 1 11.007996773344832 1.5707020432035306 17.297529063982054 0 0 0
254 1 12.580845633100214 0.007668712439695535 15.72223413805796 0 0 0
255 1 14.15515715846035 1.5728579822195183 17.295343703417423 0 0 0
256 1 15.725484700572828 0.007789930386136689 15.719279215843919 0 0 0
257 1 17.295510772085635 1.5728689653836971 17.291325346403756 0 0 0
341 1 12.590180455176993 9.436226277668949 18.879678868673786 0 0 0
259 1 20.431634080847935 1.5669453975931475 17.291967908082245 0 0 0
260 1 21.994125855433523 3.133359209036174 15.724276248041178 -1 0 0
261 1 1.5560684115680767 4.705203567209126 17.301998931106507 0 0 0
262 1 3.1088332673697217 3.108833267369721 15.74824764885033 0 0 0
263 1 4.687459702448001 4.687459702448 17.326341336338427 0 0 0
264 1 6.277997568737082 3.118404669128645 15.742199666893132 0 0 0
265 1 7.855137070652194 4.698924690049762 17.312148974962195 0 0 0
266 1 9.434506382693437 3.1336204301348793 15.734188628083979 0 0 0
267 1 11.00911378124609 4.707381016368289 17.306435140263936 0 0 0
268 1 12.58419705824326 3.1379650355610695 15.729615475539275 0 0 0
269 1 14.160613633885804 4.70739158409364 17.301980588627256 0 0 0
270 1 15.722899026979013 3.1447699055496887 15.718470978658198 0 0 0
271 1 17.304292655341133 4.707673192042649 17.299539370727345 0 0 0
272 1 18.86176745516564 3.1422622330289793 15.71814386422842 0 0 0
273 1 20.43572973712064 4.710303998900324 17.29533215965692 0 0 0
274 1 22.00224648287305 6.28339304286549 15.725822255356894 -1 0 0
275 1 1.5637261311617545 7.858696805521392 17.3003538320323 0 0 0
276 1 3.1184046691286476 6.277997568737083 15.74219966689313 0 0 0
277 1 4.698924690049762 7.855137070652194 17.312148974962195 0 0 0
278 1 6.235052250371393 6.2350522503713925 15.788933825060655 0 0 0
279 1 7.842580089748167 7.842580089748167 17.329184538790347 0 0 0
280 1 9.433390287723563 6.271042701830329 15.752642748716346 0 0 0
281 1 11.017653791555755 7.852944205377198 17.32598464378102 0 0 0
282 1 12.599346237099752 6.26655345356494 15.751402135856319 0 0 0
283 1 14.171478695354967 7.852741465928087 17.320402272338235 0 0 0
284 1 15.749994334915264 6.26817132521752 15.74556526332464 0 0 0
285 1 17.311016484575262 7.857126526024597 17.30430212651882 0 0 0
286 1 18.874129671400954 6.283141129861701 15.72603870194367 0 0 0
287 1 20.442300490764783 7.85915374088055 17.29688208475925 0 0 0
288 1 0.002796444021085347 9.432844687660698 15.724213093219678 0 0 0
289 1 3.13362043013488 9.434506382693437 15.73418862808398 0 0 0
290 1 6.271042701830333 9.433390287723567 15.752642748716347 0 0 0
291 1 9.416457132896895 9.416457132896891 15.80567698585602 0 0 0
292 1 12.62070429416604 9.42850684342051 15.770228761160224 0 0 0
293 1 15.755771521106077 9.433339905942123 15.752117658182833 0 0 0
294 1 18.88229212515704 9.434219971216187 15.72903002613735 0 0 0
340 1 9.433140042771544 9.433140042771548 18.884196593379762 0 0 0
296 1 1.5599688193626653 1.5599688193626668 20.437436499999993 0 0 0
48 1 15.740952554344721 9.434487656478472 21.999152119161057 0 0 -1
298 1 4.70771099908529 1.5609066146121429 20.43743650000005 0 0 0
47 1 12.590180455175693 9.43622627766866 21.995194131327544 0 0 -1
300 1 7.8588492813540265 1.565825840519331 20.437436500000025 0 0 0
301 1 9.433962785495412 0.0014290178752581354 18.86745666896349 0 0 0
302 1 11.00809285747574 1.5710028578304736 20.437436500000047 0 0 0
303 1 12.582095787988829 0.005421169936504184 18.866638568216356 0 0 0
304 1 14.154986698068141 1.5731124614468004 20.43743650000002 0 0 0
305 1 15.727656076165463 0.0053306104270703395 18.865660829325194 0 0 0
306 1 17.297567454197715 1.5718280493078725 20.437436500000068 0 0 0
307 1 18.86708135388681 0.0010816402224653103 18.86428535085128 0 0 0
308 1 20.43487022298222 1.5668888532204879 20.437436499999997 0 0 0
309 1 22.001186956733815 3.1354740591349977 18.867243490775103 -1 0 0
310 1 1.5609066146121438 4.707710999085286 20.43743650000005 0 0 0
311 1 3.12625782845305 3.126257828453048 18.874773906538717 0 0 0
312 1 4.700865843951402 4.700865843951399 20.437436500000164 0 0 0
313 1 6.281027431727741 3.1299964506809053 18.87311780615464 0 0 0
314 1 7.8566191643931065 4.705185870615867 20.43743650000048 0 0 0
315 1 9.43339565677888 3.1366263261377396 18.870595017470908 0 0 0
316 1 11.008168118684043 4.709861809702595 20.437436500000562 0 0 0
317 1 12.582389031993895 3.1406148254593917 18.868790624580708 0 0 0
318 1 14.15824661239838 4.7105972349572225 20.43743650000055 0 0 0
319 1 15.728153210419451 3.1409582965054836 18.86665894633054 0 0 0
320 1 17.301902145695596 4.710594465223519 20.437436500000054 0 0 0
321 1 18.868120642311354 3.1390026677422176 18.866104929565466 0 0 0
322 1 20.437054629548772 4.71091726874493 20.43743650000001 0 0 0
323 1 22.00527851232976 6.284238068454597 18.86778477713052 -1 0 0
324 1 1.5658258405193328 7.858849281354021 20.437436500000025 0 0 0
325 1 3.1299964506809057 6.281027431727737 18.87311780615464 0 0 0
326 1 4.705185870615866 7.856619164393102 20.43743650000048 0 0 0
327 1 6.273729919258202 6.2737299192582014 18.882855471706396 0 0 0
328 1 7.854621918451727 7.85462191845173 20.43743650000108 0 0 0
329 1 9.432270759742284 6.2797905238508775 18.876033578715383 0 0 0
330 1 11.011551235328826 7.856606964475988 20.437436500001986 0 0 0
331 1 12.587407856916606 6.280691370261382 18.875584388937934 0 0 0
332 1 14.162596552308873 7.858742182304629 20.437436500000334 0 0 0
333 1 15.73531431496217 6.281790914087942 18.87323426790071 0 0 0
334 1 17.30685960631455 7.858635526684296 20.437436499999997 0 0 0
335 1 18.872765454393186 6.284324320992975 18.8680748249293 0 0 0
336 1 20.44182129939193 7.859367110334236 20.43743650000001 0 0 0
337 1 0.0014290178752574849 9.433962785495408 18.86745666896349 0 0 0
338 1 3.136626326137739 9.433395656778877 18.870595017470908 0 0 0
339 1 6.279790523850875 9.432270759742286 18.876033578715383 0 0 0
46 1 9.433140042771704 9.433140042771706 21.990676406622832 0 0 -1
45 1 6.279790523852058 9.432270759742806 21.998839421288135 0 0 -1
44 1 3.1366263261379452 9.433395656778949 22.004277982529416 0 0 -1
43 1 0.001429017875278399 9.433962785495408 22.00741633103652 0 0 -1
41 1 18.872765454393203 6.28432432099294 22.00679817507069 0 0 -1
39 1 15.735314314961947 6.281790914087886 22.001638732099586 0 0 -1
37 1 12.587407856915755 6.280691370262229 21.999288611065165 0 0 -1
35 1 9.432270759742806 6.27979052385206 21.998839421288135 0 0 -1
33 1 6.273729919258421 6.27372991925842 21.992017528295495 0 0 -1
31 1 3.1299964506812157 6.281027431727957 22.00175519384584 0 0 -1
29 1 22.005278512329795 6.2842380684546235 22.00708822286949 -1 0 -1
7 1 9.433962785495412 0.0014290178752790538 22.00741633103652 0 0 -1
9 1 12.582095787988825 0.0054211699365250415 22.00823443178363 0 0 -1
11 1 15.72765607616545 0.005330610427113715 22.009212170674807 0 0 -1
258 1 18.864624180031193 0.0016198793499515047 15.716541042914995 0 0 0
15 1 22.00118695673382 3.1354740591350097 22.007629509224913 -1 0 -1
17 1 3.1262578284532156 3.1262578284532134 22.00009909346141 0 0 -1
19 1 6.281027431727961 3.129996450681215 22.001755193845845 0 0 -1
21 1 9.43339565677895 3.1366263261379466 22.00427798252942 0 0 -1
23 1 12.582389031993868 3.140614825459773 22.006082375419833 0 0 -1
27 1 18.86812064231134 3.139002667742233 22.008768070434524 0 0 -1
25 1 15.72815321041908 3.1409582965058687 22.008214053670077 0 0 -1
344 1 1.570702043203834 11.007996773344916 1.567796936018109 0 0 0
462 1 18.868444914883515 18.86844491488351 6.293253225514531 0 0 0
461 1 15.726599682749985 18.87440938042351 6.292010419923731 0 0 0
460 1 12.586195820378883 18.887264067789808 6.284579753488976 0 0 0
459 1 9.43385091515988 18.88030441323416 6.28357654397333 0 0 0
349 1 17.316611159167067 11.012340007305166 1.55876149593063 0 0 0
458 1 6.290942084719706 18.861365262446295 6.290928893103147 0 0 0
466 1 11.06074577547162 11.060745775471593 7.243305007708468 0 0 0
352 1 1.572857982219877 14.155157158460291 1.56998229658272 0 0 0
444 1 6.3431406283369 12.538533930393493 6.318721363608826 0 0 0
354 1 4.707391584095736 14.160613633883509 1.5633454113758793 0 0 0
101 1 6.282764105606087 22.000026027820585 6.2866829160570905 0 -1 0
356 1 7.852741465925525 14.171478695355935 1.5449237276626913 0 0 0
100 1 3.1371753134264644 21.996051325769052 6.290432083635912 0 -1 0
358 1 11.01627533528338 14.176627855901275 1.5379859240044063 0 0 0
99 1 22.003148328478318 22.00314832847832 6.291521492725092 -1 -1 0
360 1 14.178078959775206 14.178078959775203 1.5437255017416507 0 0 0
443 1 3.1506292523543467 12.579868762744345 6.283536900770446 0 0 0
362 1 17.319511860697 14.168422078116953 1.5587817069462806 0 0 0
52 1 3.133359209036137 21.99412585543345 3.1410497519587652 0 -1 0
364 1 20.450401645440042 14.157277068879752 1.5698704361432863 0 0 0
50 1 22.002646187635797 22.0026461876358 3.1468983848772236 -1 -1 0
366 1 1.572868965383925 17.295510772085436 1.5740006535964417 0 0 0
54 1 6.28339304286552 22.002246482873133 3.1395037446430907 0 -1 0
368 1 4.70767319204264 17.304292655340916 1.5657866292726832 0 0 0
456 1 0.002624065432839237 18.861692469516147 6.293034451563962 0 0 0
370 1 7.85712652602404 17.31101648457545 1.5610238734809803 0 0 0
455 1 18.874409380423515 15.726599682749985 6.292010419923729 0 0 0
372 1 11.01234000730517 17.316611159167064 1.5587614959306315 0 0 0
454 1 15.727000132283761 15.727000132283761 6.298743235424416 0 0 0
374 1 14.168422078116954 17.319511860696995 1.55878170694628 0 0 0
453 1 12.619042243436676 15.774621317704636 6.249876243907049 0 0 0
376 1 17.310422918868074 17.310422918868074 1.567966230035824 0 0 0
452 1 9.430268698096391 15.760501653346306 6.245806848768573 0 0 0
378 1 20.446398105779505 17.300486228490417 1.573088627051716 0 0 0
451 1 6.297522724657383 15.714715792276047 6.2935221175106495 0 0 0
380 1 1.566945397593155 20.43163408084789 1.573358091917744 0 0 0
450 1 3.1552755151568763 15.715285003375763 6.294711066953314 0 0 0
382 1 4.7103039989003515 20.435729737120575 1.5699938403430902 0 0 0
449 1 0.009267597778278716 15.720425107462408 6.292355448806499 0 0 0
384 1 7.8591537408805205 20.44230049076484 1.5684439152407188 0 0 0
448 1 18.887264067789808 12.586195820378885 6.284579753488973 0 0 0
386 1 11.008669812318024 20.44827454835699 1.5687053943776612 0 0 0
447 1 15.774621317704636 12.619042243436683 6.249876243907048 0 0 0
388 1 14.157277068879749 20.450401645440042 1.5698704361432876 0 0 0
446 1 12.674433266400767 12.674433266400769 6.145727798346415 0 0 0
390 1 17.300486228490414 20.446398105779505 1.5730886270517168 0 0 0
445 1 9.407731691046378 12.741821706029715 6.000464100064476 0 0 0
392 1 20.437939890646756 20.43793989064676 1.5753401257556892 0 0 0
393 1 1.5740620437138384 11.00526049112406 4.714334039379571 0 0 0
394 1 4.702632869299409 11.019408223638935 4.695893666679046 0 0 0
457 1 3.14797300721648 18.85679002560897 6.293705005342139 0 0 0
396 1 11.046470702504996 11.04647070250499 4.55037548395501 0 0 0
397 1 14.226205265810059 11.057951761433674 4.627522685235734 0 0 0
398 1 17.327065002417772 11.015818077651607 4.697913761855842 0 0 0
399 1 20.451127495152978 11.007506013739814 4.714271507098334 0 0 0
400 1 0.007668712439973852 12.580845633100306 3.1430918619420334 0 0 0
401 1 1.5785141433880558 14.150975799836193 4.717443436513684 0 0 0
402 1 3.1379650355626434 12.5841970582431 3.1357105244618704 0 0 0
403 1 4.721297954892405 14.144066626832123 4.723719617440741 0 0 0
404 1 6.2665534535673695 12.599346237094226 3.1139238641477753 0 0 0
405 1 7.80503528516619 14.219384295146577 4.646603564399762 0 0 0
406 1 9.428506843409767 12.62070429417343 3.0950972388223077 0 0 0
407 1 11.057951761433666 14.22620526581006 4.627522685235737 0 0 0
408 1 12.619186091531256 12.619186091531258 3.0749842299340737 0 0 0
409 1 14.205439598917973 14.205439598917977 4.666156957721814 0 0 0
410 1 15.765554208554754 12.607658341605928 3.1061256545173577 0 0 0
411 1 17.32577493456944 14.172213760852998 4.70127227058832 0 0 0
412 1 18.887842755746032 12.587009085282574 3.1362054267124737 0 0 0
413 1 20.452616727092494 14.155536407014056 4.716016414242327 0 0 0
414 1 0.007789930386371538 15.725484700572743 3.1460467841561357 0 0 0
415 1 1.576683429993441 17.290862902809472 4.721597961840579 0 0 0
416 1 3.1447699055514424 15.722899026977235 3.1468550213434208 0 0 0
417 1 4.718152841483637 17.29105938371536 4.720346224606442 0 0 0
418 1 6.268171325219538 15.7499943349112 3.1197607366785234 0 0 0
419 1 7.854615628356887 17.318113353091412 4.702256535306376 0 0 0
420 1 9.433339905938592 15.755771521109532 3.113208341815158 0 0 0
421 1 11.015818077651604 17.327065002417772 4.697913761855842 0 0 0
422 1 12.607658341605926 15.765554208554752 3.106125654517357 0 0 0
423 1 14.172213760853001 17.32577493456944 4.701272270588318 0 0 0
424 1 15.751710355309138 15.751710355309132 3.126542193283569 0 0 0
425 1 17.30349628977983 17.30349628977983 4.720273218354649 0 0 0
426 1 18.883923179334246 15.734713516152969 3.1405893227213464 0 0 0
427 1 20.444371642758735 17.296114105581566 4.721040701105588 0 0 0
428 1 0.001619879349934292 18.86462418003122 3.148784957084982 0 0 0
429 1 1.569333765509699 20.42978129783101 4.720481377991185 0 0 0
430 1 3.142262233029089 18.861767455165417 3.147182135771619 0 0 0
431 1 4.712966303041958 20.428287596917098 4.717654241562964 0 0 0
432 1 6.283141129861685 18.8741296714007 3.1392872980563915 0 0 0
433 1 7.858467734650341 20.442642295733958 4.713750931591588 0 0 0
434 1 9.43421997121603 18.882292125157218 3.136295973862634 0 0 0
435 1 11.007506013739816 20.451127495152978 4.7142715070983305 0 0 0
436 1 12.587009085282576 18.88784275574603 3.136205426712474 0 0 0
437 1 14.155536407014058 20.452616727092494 4.716016414242328 0 0 0
438 1 15.734713516152965 18.883923179334246 3.1405893227213473 0 0 0
439 1 17.296114105581566 20.444371642758735 4.721040701105592 0 0 0
440 1 18.871849669740165 18.87184966974017 3.14820273834971 0 0 0
441 1 20.43680592799396 20.436805927993962 4.721487305455706 0 0 0
442 1 0.011031733558971633 12.577633731120777 6.289684832925433 0 0 0
395 1 7.819190532419548 11.061773645033396 4.627147348267286 0 0 0
350 1 20.44827454835699 11.008669812318024 1.5687053943776614 0 0 0
348 1 14.176627855901275 11.01627533528338 1.5379859240044067 0 0 0
347 1 11.016727933909484 11.016727933909483 1.542783571993405 0 0 0
346 1 7.85294420537706 11.017653791555441 1.5393413562265805 0 0 0
345 1 4.707381016370276 11.009113781245373 1.5588908597390605 0 0 0
391 1 18.873978350811345 18.87397835081135 0.00040926163295026876 0 0 0
1 1 22.002866061563417 22.002866061563417 0.00017639046422471039 -1 -1 0
379 1 0.0010816402224935546 18.8670813538868 0.00104064914872523 0 0 0
201 1 6.282764105606025 22.000026027820454 12.57864308394292 0 -1 0
464 1 4.684685426350765 11.015494013144789 7.842420981482287 0 0 0
588 1 20.436805927993962 20.436805927993966 14.143838694544304 0 0 0
199 1 3.137175313426479 21.996051325769102 12.574893916364102 0 -1 0
467 1 14.263386612827821 11.05223043732414 7.748705898617557 0 0 0
468 1 17.32100513056755 11.012685926216816 7.849887089522001 0 0 0