LAMMPS data file via write_data, version 2 Aug 2023, timestep = 80, units = metal

691 atoms
3 atom types

0 22.009546999999998 xlo xhi
0 22.009546999999998 ylo yhi
0 22.009546999999998 zlo zhi

Masses

1 183.84
2 1.008
3 4.0026

Atoms # atomic

1 1 21.644717377346293 21.571957546179462 21.576986043473372 -1 -1 -1
2 1 2.0078336924712326 2.1441277005590225 1.6948739259190393 0 0 0
3 1 3.3444566361435473 22.00681354310288 21.92638320971324 0 -1 -1
4 1 4.71944114206169 1.6241989853813497 1.5940662809416533 0 0 0
5 1 6.276330335425125 0.006180853783224514 22.007797661526578 0 0 -1
6 1 7.861130347772677 1.5776620330504134 1.5722433078610534 0 0 0
7 1 9.430614810820513 0.0008453389492176362 22.008363318603262 0 0 -1
8 1 11.005926529500133 1.570477342530247 1.5697871803740158 0 0 0
9 1 12.576256129811764 22.00587523935951 22.006470051043692 0 -1 -1
10 1 14.150194638480338 1.5658944294874348 1.5681811333501716 0 0 0
11 1 15.722413045337952 21.997151247812532 22.000774512799946 0 -1 -1
12 1 17.296089619245155 1.5598657072604134 1.570131213078671 0 0 0
13 1 18.86396413348065 21.94921951746758 21.95746912065775 0 -1 -1
14 1 20.120733684331082 1.5799323888481602 1.6228463987182469 0 0 0
15 1 0.05153249855290605 3.3684383521008523 21.978428270257844 0 0 -1
16 1 1.6379817615557832 4.780971874373246 1.6062812091802154 0 0 0
17 1 3.236982210685816 3.2337702712956853 21.840870792425235 0 0 -1
18 1 4.720620230995858 4.723152389556167 1.5755926303508567 0 0 0
19 1 6.311563382496981 3.1578092483587614 21.999485513477374 0 0 -1
20 1 7.869595866632538 4.723577147844737 1.5728232459333822 0 0 0
21 1 9.440172925498583 3.146016354908421 22.00772250692839 0 0 -1
22 1 11.009170511350401 4.7167838295609466 1.5705115268057068 0 0 0
23 1 12.579400566986696 3.141214969578942 22.00751859791026 0 0 -1
24 1 14.147739414006807 4.714661110073185 1.5697096820317846 0 0 0
25 1 15.720127847636567 3.1401513891759265 22.007074598697635 0 0 -1
26 1 17.283272374995892 4.720250935532996 1.5703385245675991 0 0 0
27 1 18.852221498829937 3.1793037518965908 21.982771610591303 0 0 -1
28 1 20.417501860900686 4.722756484949442 1.5839289235213063 0 0 0
29 1 0.010377326384678642 6.288775824841961 22.008286813634612 0 0 -1
30 1 1.5813804376744713 7.878266516387895 1.5732082033528976 0 0 0
31 1 3.166516684365264 6.321438635791359 21.995532516291146 0 0 -1
32 1 4.728401187587136 7.873427972976603 1.572660987283923 0 0 0
33 1 6.301655418488072 6.299456807987556 22.00833918480819 0 0 -1
34 1 7.870595835026951 7.86840102720717 1.570333712627065 0 0 0
35 1 9.439913320939342 6.291390519516448 22.007651158013058 0 0 -1
36 1 11.009169006785838 7.861633219385684 1.57015357650569 0 0 0
37 1 12.579032445948751 6.287266279052247 22.007162859705176 0 0 -1
38 1 14.148831903909162 7.85902304419338 1.5699990832636908 0 0 0
39 1 15.719184969569374 6.288089884778159 22.00638494255752 0 0 -1
40 1 17.290527060581518 7.86148422385723 1.5701601479905554 0 0 0
41 1 18.863822062201372 6.297350554996663 22.006695105226623 0 0 -1
42 1 20.43915224798888 7.86336369757268 1.5694398398568745 0 0 0
43 1 0.0019139146942901823 9.434255671658217 22.006936702217647 0 0 -1
44 1 1.57289788154693 11.008528213833378 1.5697707627149549 0 0 0
45 1 3.1507546066140955 9.443748820165023 22.006222779709454 0 0 -1
46 1 4.720846876000685 11.009781035835687 1.5705190672624145 0 0 0
47 1 6.295460397961843 9.43918403716309 22.00699196609575 0 0 -1
48 1 7.864764140508394 11.00782809204772 1.570202727368809 0 0 0
49 1 9.437208903831952 9.434688707112718 22.006891318447078 0 0 -1
50 1 11.005865069209769 11.003878919168107 1.5700543585039033 0 0 0
51 1 12.577514562437303 9.430568810976027 22.00703167711276 0 0 -1
52 1 14.146842575712617 11.000611685496278 1.5699212162435416 0 0 0
53 1 15.719078306574296 9.42926495350772 22.006719902965397 0 0 -1
54 1 17.290035370600854 11.000044419868637 1.5695613615939616 0 0 0
55 1 18.864011520613598 9.431710771359331 22.006651406034468 0 0 -1
56 1 20.436140338863055 11.002025131556037 1.5691796944070102 0 0 0
57 1 22.006857050187264 12.573076707941988 22.00514798454656 -1 0 -1
58 1 1.5684920786451528 14.144903883828336 1.567586908211288 0 0 0
59 1 3.1448443726249455 12.576936316961739 22.00607832121925 0 0 -1
60 1 4.718217937233237 14.145797634516587 1.569555757004431 0 0 0
61 1 6.291083145216445 12.577389630509803 22.006652888335864 0 0 -1
62 1 7.861850816042828 14.147788141659058 1.570100314332304 0 0 0
63 1 9.433363830720058 12.5758832550683 22.007000264770582 0 0 -1
64 1 11.002655224303364 14.14586452407482 1.569994745263882 0 0 0
65 1 12.573977340433007 12.57225580484594 22.00701761181004 0 0 -1
66 1 14.142721063136273 14.141503554142432 1.5701072903641737 0 0 0
67 1 15.715337854512896 12.568427441763896 22.006591212350916 0 0 -1
68 1 17.285193269726406 14.137495054411682 1.5693121963580268 0 0 0
69 1 18.860449491865037 12.568542089793041 22.00541379165172 0 0 -1
70 1 20.431384073647887 14.139033396278137 1.568387125368599 0 0 0
71 1 21.99698115102471 15.71010019249538 21.998056987898707 -1 0 -1
72 1 1.5627376234229424 17.279022815338053 1.564461579939514 0 0 0
73 1 3.144976965817909 15.71025268146149 22.00346464926497 0 0 -1
74 1 4.72200702877828 17.281053211122266 1.5708780367932917 0 0 0
75 1 6.291465534915501 15.716723492413212 22.006129748512894 0 0 -1
76 1 7.862518778045181 17.29011521747335 1.5704766015405287 0 0 0
77 1 9.431754796165313 15.718161494394074 22.006953074016494 0 0 -1
78 1 11.001548541295021 17.289964906704967 1.5696614908853097 0 0 0
79 1 12.57042786492114 15.71471652339063 22.006818399439613 0 0 -1
80 1 14.139692101839893 17.28506227085129 1.5691971609613773 0 0 0
81 1 15.708285205211313 15.70705580016439 22.006719609279934 0 0 -1
82 1 17.274570542042465 17.27300778197561 1.5728471859878135 0 0 0
83 1 18.85257735210527 15.70353715228471 22.003270387425136 0 0 -1
84 1 20.42353501902603 17.273378426893807 1.5725195049666354 0 0 0
85 1 21.937454055379888 18.829793517739315 21.94448737648115 -1 0 -1
86 1 1.571383763898064 20.080843612105106 1.5679740159092266 0 0 0
87 1 3.1929690992349555 18.827871325947857 21.969255746409267 0 0 -1
88 1 4.700843149516944 20.42613434086066 1.5891188639628955 0 0 0
89 1 6.2974103869116105 18.862735728972307 22.00872215994463 0 0 -1
90 1 7.856220972214731 20.440075552626233 1.5696407897998 0 0 0
91 1 9.432307847858615 18.86393564822654 22.00767309783038 0 0 -1
92 1 11.001590399622142 20.436056543707537 1.5692073380957536 0 0 0
93 1 12.571245685627812 18.860628586053984 22.006116202026277 0 0 -1
94 1 14.143142324026249 20.431456917931612 1.5685440717399748 0 0 0
95 1 15.708242067093762 18.853203049055924 22.00351280427644 0 0 -1
96 1 17.280690992399194 20.424956302605455 1.572132354662733 0 0 0
97 1 18.832816834854967 18.83021338274593 0.007096172247527009 0 0 0
98 1 20.399058754109724 20.40311183800079 1.640713294976795 0 0 0
99 1 21.937242022411642 21.89773632391615 3.5053602102405654 -1 -1 0
100 1 1.5895948947156304 1.6085162839982217 4.725283314424194 0 0 0
101 1 3.176071643236907 0.017275605157123945 3.217094540414332 0 0 0
102 1 4.760966521227196 1.5646510492427523 4.758801989767707 0 0 0
103 1 6.290104581698601 0.004517489456535948 3.143459162273241 0 0 0
104 1 7.873824221129733 1.573160683047507 4.722199049480657 0 0 0
105 1 9.432549108075909 0.0003312343515754664 3.1422480114686646 0 0 0
106 1 11.006915739630236 1.5707311752563795 4.716146178237398 0 0 0
107 1 12.573569454822582 22.006524389434396 3.1418443089982966 0 -1 0
108 1 14.142890989180804 1.5684546468415999 4.71752882520493 0 0 0
109 1 15.70966245756747 22.001717334303375 3.145981057595911 0 -1 0
110 1 17.2733167834467 1.5690685243655764 4.728345914533207 0 0 0
111 1 18.82648053012319 21.962077028673775 3.2051933593477764 0 -1 0
112 1 20.392578524468277 1.6010859382691758 4.741238633128764 0 0 0
113 1 21.975224632304997 3.1935222136660646 3.164631827022219 -1 0 0
114 1 1.5616517332162014 4.755333104605075 4.742626756468254 0 0 0
115 1 3.305513468473237 3.287927850914113 3.393605985782612 0 0 0
116 1 4.7984064324310935 4.80027915387067 4.791747748662248 0 0 0
117 1 6.3144128269797495 3.1650343683642763 3.1664874391370237 0 0 0
118 1 7.887238370789374 4.729337276858102 4.727681713736011 0 0 0
119 1 9.440928870651826 3.1464026663801885 3.1443256022039474 0 0 0
120 1 11.01204188099997 4.717313972838545 4.717018890873228 0 0 0
121 1 12.577661533874224 3.141591579828547 3.142039844750178 0 0 0
122 1 14.145611441830418 4.7160228370878965 4.717211052876646 0 0 0
123 1 15.710927804391927 3.1417380988761914 3.1445953001528877 0 0 0
124 1 17.273911447878064 4.730757824845289 4.732366852483171 0 0 0
125 1 18.815493363640048 3.1875222021806913 3.188916025699499 0 0 0
126 1 20.424209268552012 4.73804170883097 4.735059957140515 0 0 0
127 1 22.00871168270558 6.306026046722285 3.146886246014913 -1 0 0
128 1 1.5741705559036154 7.876574792627744 4.72360018691727 0 0 0
129 1 3.174060474090943 6.332348644816069 3.173412673604526 0 0 0
130 1 4.734290098809395 7.890836481573191 4.731167107305297 0 0 0
131 1 6.307735370549616 6.3063501765241226 3.1453878734399847 0 0 0
132 1 7.872813174710604 7.87077403581865 4.719511964990021 0 0 0
133 1 9.442207792661888 6.293343439540808 3.143792384718988 0 0 0
134 1 11.009892665780663 7.862484266927489 4.716145153990792 0 0 0
135 1 12.579094128622778 6.28820555482294 3.1428325589544954 0 0 0
136 1 14.148335956369586 7.860224214016389 4.715856994389855 0 0 0
137 1 15.717168767478086 6.289370942048967 3.1439382234800535 0 0 0
138 1 17.288687071157167 7.8643644644605235 4.718539784400561 0 0 0
139 1 18.857685486905613 6.301181766971687 3.148696345928314 0 0 0
140 1 20.435556511058618 7.8678154621254635 4.719537980148859 0 0 0
141 1 0.0005324394519100861 9.437722625092556 3.144201192879622 0 0 0
142 1 1.5726902953246211 11.007758643352634 4.717498449213866 0 0 0
143 1 3.1506304336769 9.446819665788233 3.1465764211510754 0 0 0
144 1 4.720987287046087 11.01315225609913 4.718489734140526 0 0 0
145 1 6.2969406570140025 9.442220222247231 3.1444626222420826 0 0 0
146 1 7.865343142699138 11.008973891010534 4.716584448296763 0 0 0
147 1 9.438098295729855 9.435987813642335 3.14326523991921 0 0 0
148 1 11.00637720416233 11.004658672222314 4.715219160524898 0 0 0
149 1 12.577967740503864 9.43162081071979 3.1426046992897976 0 0 0
150 1 14.147229161998036 11.001642835769827 4.714921279479151 0 0 0
151 1 15.719192694732499 9.43064134167096 3.1426303344998643 0 0 0
152 1 17.29019653365145 11.00095172220782 4.715295313249616 0 0 0
153 1 18.863911708871573 9.432821206178982 3.142578870507057 0 0 0
154 1 20.43552766446419 11.002621008457565 4.716272773204403 0 0 0
155 1 22.007532762037687 12.572599996382092 3.14252233648274 -1 0 0
156 1 1.5708012295276492 14.140992446682692 4.717641106868077 0 0 0
157 1 3.1448995856721185 12.577791385601689 3.1426614214299455 0 0 0
158 1 4.718711008042144 14.145598365565444 4.71732032825112 0 0 0
159 1 6.291557555062201 12.578665346136424 3.143246648768777 0 0 0
160 1 7.862525257222705 14.148096445142864 4.715855885103142 0 0 0
161 1 9.434008003143006 12.576831073341058 3.1427134656269313 0 0 0
162 1 11.003375446790251 14.146521117608499 4.714776389890168 0 0 0
163 1 12.574827749403783 12.573396799380825 3.142430869522991 0 0 0
164 1 14.14353426025672 14.142459137288709 4.715309278750299 0 0 0
165 1 15.716565278355592 12.570276837531313 3.1424430072978096 0 0 0
166 1 17.285930458890142 14.137851918210607 4.716516693343365 0 0 0
167 1 18.86125117415512 12.569375521360891 3.1421807837443905 0 0 0
168 1 20.431955697692395 14.135706887731747 4.718145184382883 0 0 0
169 1 22.002698543428657 15.703962898876286 3.1453452795933177 -1 0 0
170 1 1.5722773634002167 17.26820106518145 4.726327223543871 0 0 0
171 1 3.1446537977053652 15.7093829988072 3.143764116675576 0 0 0
172 1 4.7300278930627675 17.27589458758445 4.729590112990483 0 0 0
173 1 6.291423089915726 15.717039044061048 3.143917148098716 0 0 0
174 1 7.864217606279458 17.289874725495082 4.717007137583756 0 0 0
175 1 9.432343191070657 15.718956857744393 3.1425419251119724 0 0 0
176 1 11.001828681713038 17.290385551146034 4.714451849408138 0 0 0
177 1 12.571850878997566 15.71612287294093 3.142253360904747 0 0 0
178 1 14.139479112467995 17.285510476144275 4.715938029004742 0 0 0
179 1 15.710634340791753 15.709502798663792 3.144087038547157 0 0 0
180 1 17.274022772773705 17.2722375123271 4.725078049401724 0 0 0
181 1 18.854285790329286 15.703307463407016 3.144436530965343 0 0 0
182 1 20.41605408730765 17.256021198017994 4.737213755397335 0 0 0
183 1 21.966628538294263 18.816422922667737 3.19795473708329 -1 0 0
184 1 1.6141061911290786 20.378142715207115 4.743404421638513 0 0 0
185 1 3.1821341376112557 18.82241794411517 3.182519033442234 0 0 0
186 1 4.735742513011994 20.427505209661906 4.735785438850473 0 0 0
187 1 6.296772507611133 18.860770223589363 3.1463393028060174 0 0 0
188 1 7.864365778035541 20.437554285795184 4.716943609129762 0 0 0
189 1 9.431635625641437 18.864702140913632 3.141651055503216 0 0 0
190 1 11.002222614339587 20.435573605438663 4.714798671172151 0 0 0
191 1 12.570801529819427 18.861325988638487 3.141605785555102 0 0 0
192 1 14.137863969735424 20.431173361417777 4.71744396880851 0 0 0
193 1 15.706584570259354 18.85397013746323 3.1438098629803846 0 0 0
194 1 17.259576624659896 20.413581782089413 4.737668970244645 0 0 0
195 1 18.8316963909224 18.828382529335812 3.162368111435041 0 0 0
196 1 20.363280309306003 20.358218026653986 4.7966250385537545 0 0 0
197 1 22.004953006724456 21.998314983073982 6.300498099152629 -1 -1 0
198 1 1.5741575678700044 1.5762774413689646 7.862413756549146 0 0 0
199 1 3.1450506059392644 0.0013288081899277618 6.303607817503259 0 0 0
200 1 4.723132580859669 1.5749007940038866 7.872183001702327 0 0 0
201 1 6.302193979026748 22.00381599523284 6.302395413916622 0 -1 0
202 1 7.868214161213311 1.571407148894553 7.866824883525027 0 0 0
203 1 9.43685284661699 22.00757732091002 6.29075168718791 0 -1 0
204 1 11.00672811446049 1.5703543314177326 7.862129464606561 0 0 0
205 1 12.573551950624962 22.006452466469753 6.289221481466256 0 -1 0
206 1 14.145044107514112 1.5696987963892612 7.862805721923629 0 0 0
207 1 15.70995177934409 22.004269472532346 6.295195236291847 0 -1 0
208 1 17.284878554815656 1.570297943606145 7.868739104149153 0 0 0
209 1 18.849396969793307 22.003682989522535 6.31249773627451 0 -1 0
210 1 20.433831112115048 1.5705509658286236 7.868297726123195 0 0 0
211 1 22.007046494844854 3.1488039437829225 6.294597437975437 -1 0 0
212 1 1.574267359931554 4.721919339034058 7.867594838152114 0 0 0
213 1 3.165478842766249 3.1661708749239215 6.300024639363588 0 0 0
214 1 4.728957964898949 4.728356887328014 7.882143691533105 0 0 0
215 1 6.311401616760042 3.1532073162359158 6.309177951424876 0 0 0
216 1 7.873159388008523 4.722143493692985 7.870597525753742 0 0 0
217 1 9.442250841549322 3.1453104026577545 6.293119782237864 0 0 0
218 1 11.009650830733076 4.716815288923923 7.863043025238988 0 0 0
219 1 12.577232202265064 3.142838846485984 6.289577907052238 0 0 0
220 1 14.14719705809137 4.715829588391536 7.862773491435549 0 0 0
221 1 15.713101418496818 3.143996743105477 6.293639047382838 0 0 0
222 1 17.286446321156543 4.719472453395286 7.868850724108979 0 0 0
223 1 18.849334021657402 3.1537220145238334 6.3088798676522995 0 0 0
224 1 20.435863279500644 4.718690539330318 7.86697809604184 0 0 0
225 1 22.005293747322682 6.301646874981362 6.299953390668647 -1 0 0
226 1 1.5723586955920892 7.8672633920909805 7.866880431849291 0 0 0
227 1 3.151525055546059 6.309987445799343 6.307684611098961 0 0 0
228 1 4.723301041106883 7.871640012109664 7.8707501904521155 0 0 0
229 1 6.3218705924827905 6.320885574809216 6.3186773008199495 0 0 0
230 1 7.87440655370051 7.872652806804969 7.871521356742154 0 0 0
231 1 9.446230172878202 6.295416643844237 6.2945972692941865 0 0 0
232 1 11.010248276702038 7.863080968704671 7.863075972764414 0 0 0
233 1 12.57913091970643 6.289219835764631 6.289713136152017 0 0 0
234 1 14.147772906253113 7.860877068941827 7.862221310077093 0 0 0
235 1 15.714472080896197 6.292501754228687 6.293930852811309 0 0 0
236 1 17.289601857828764 7.861492854320404 7.863437111990852 0 0 0
237 1 18.858166602924882 6.296058116239989 6.29668683945436 0 0 0
238 1 20.434575719328297 7.863482652674837 7.864685172459472 0 0 0
239 1 22.008494752444857 9.436863832898117 6.291815355642088 -1 0 0
240 1 1.5720065488915327 11.005576969791136 7.862810284224611 0 0 0
241 1 3.1472509917047065 9.442189117743682 6.294236998297392 0 0 0
242 1 4.719138472585174 11.008503021337381 7.863656903925085 0 0 0
243 1 6.298699465125612 9.446188436821904 6.29602363901639 0 0 0
244 1 7.865618105377912 11.00920954990383 7.863505114254178 0 0 0
245 1 9.43880708376487 9.43686896560016 6.290019909799276 0 0 0
246 1 11.006349601773751 11.004680197403486 7.860345440472909 0 0 0
247 1 12.577960450674608 9.432265289872003 6.288002073072533 0 0 0
248 1 14.146930181403082 11.001794304966094 7.859882474767135 0 0 0
249 1 15.718443977252504 9.431806942895017 6.288818429982586 0 0 0
250 1 17.28990095345783 11.0004972322008 7.860668445197846 0 0 0
251 1 18.862628431021218 9.43272713101821 6.2896897181130065 0 0 0
252 1 20.435152010683623 11.002302152658045 7.861660251803898 0 0 0
253 1 22.00783662670471 12.572381891594183 6.290019214429012 -1 0 0
254 1 1.571724615895485 14.143184335793363 7.863047590457367 0 0 0
255 1 3.145323246844879 12.576430138988155 6.290301938559761 0 0 0
256 1 4.718355084327095 14.145881037927692 7.8629618136967965 0 0 0
257 1 6.292036158766667 12.578923973597437 6.290239476724903 0 0 0
258 1 7.863063039983319 14.147219416471108 7.861932944148879 0 0 0
259 1 9.434424304853659 12.577044192902198 6.288026587736543 0 0 0
260 1 11.00349591255663 14.146120891402045 7.859561485774347 0 0 0
261 1 12.575058722925904 12.573748144326634 6.287141432854911 0 0 0
262 1 14.143385650162266 14.142266316795851 7.860095212571262 0 0 0
263 1 15.716670869317555 12.570660893746908 6.28786534035391 0 0 0
264 1 17.285876779212344 14.138206803878653 7.862779239422296 0 0 0
265 1 18.860942378843696 12.569079787108098 6.289314916737997 0 0 0
266 1 20.43369943270387 14.14007685578356 7.863022574267162 0 0 0
267 1 22.006299768016493 15.707204044771567 6.295163907076023 -1 0 0
268 1 1.572577844125112 17.28208108671578 7.86861238033674 0 0 0
269 1 3.1466652639214057 15.711250325228114 6.2936104664669195 0 0 0
270 1 4.722090206378292 17.284678895034222 7.868984367230204 0 0 0
271 1 6.293957041270312 15.714787805292906 6.292976306283655 0 0 0
272 1 7.8632816297759645 17.289046457232153 7.862684095972039 0 0 0
273 1 9.433165792262393 15.71847561357633 6.28802958630553 0 0 0
274 1 11.001945303061111 17.28950766082232 7.859871627510638 0 0 0
275 1 12.571996429540953 15.716172980936808 6.287388126961434 0 0 0
276 1 14.139636995989024 17.285023282730137 7.862426362031693 0 0 0
277 1 15.710484592198554 15.709365510655292 6.291230946043474 0 0 0
278 1 17.277940072208803 17.27635995355513 7.871085025918419 0 0 0
279 1 18.852845771626793 15.701487080779478 6.29713108967228 0 0 0
280 1 20.430960480689087 17.278882088563797 7.87105327365974 0 0 0
281 1 22.007118292280698 18.844826976064564 6.310997937337359 -1 0 0
282 1 1.5727076744107646 20.429890388353563 7.870368877329984 0 0 0
283 1 3.157880993548095 18.845750655302453 6.310701825812421 0 0 0
284 1 4.71971642884544 20.435208703073837 7.8678573699997525 0 0 0
285 1 6.296746088512973 18.858083460021962 6.295635794487983 0 0 0
286 1 7.864868716556389 20.433527208246762 7.864421971369963 0 0 0
287 1 9.432968245168984 18.86298311262472 6.288133085135054 0 0 0
288 1 11.003648182808982 20.43427743922528 7.860902339955978 0 0 0
289 1 12.570257263014787 18.86057789398303 6.288371493156457 0 0 0
290 1 14.141922675194314 20.432450454438662 7.862638097201138 0 0 0
291 1 15.703372612071545 18.851515668501985 6.29684081538328 0 0 0
292 1 17.2813173262258 20.42894472883539 7.8711599516192745 0 0 0
293 1 18.833343492750064 18.830746569604816 6.320298775905133 0 0 0
294 1 20.428819820383943 20.4257075111833 7.882254969367087 0 0 0
295 1 22.00890485021039 22.00688404134559 9.435733863691713 -1 -1 0
296 1 1.5715172421489303 1.570567403905979 11.004089528418111 0 0 0
297 1 3.1443122763377582 22.008472581352084 9.436154729373737 0 -1 0
298 1 4.717992853706937 1.571523647993131 11.00533584384535 0 0 0
299 1 6.291755183582623 22.008033997316886 9.43658543879783 0 -1 0
300 1 7.86375634722965 1.5708309058243854 11.005292250653701 0 0 0
301 1 9.43453505437238 22.007247219949956 9.433715515640964 0 -1 0
302 1 11.005537654466414 1.5701775661089983 11.004124466297162 0 0 0
303 1 12.574680698615193 22.006695667798656 9.432800185727958 0 -1 0
304 1 14.146549537319222 1.5697276978841352 11.00421675775809 0 0 0
305 1 15.715291853840808 22.005906482283187 9.435242905772034 0 -1 0
306 1 17.2896890374867 1.569330446247793 11.006077893315144 0 0 0
307 1 18.859841669022018 22.005934526070867 9.439914132517941 0 -1 0
308 1 20.436057629014762 1.568983760955029 11.005905278968516 0 0 0
309 1 22.009164531404977 3.143874710786727 9.434492865857669 -1 0 0
310 1 1.5725205311109305 4.716489974149541 11.00442790049376 0 0 0
311 1 3.146615285072998 3.1462948896224843 9.436306964410798 0 0 0
312 1 4.719435660529097 4.7179582924687855 11.007786779476895 0 0 0
313 1 6.295332498249608 3.1458161369115003 9.439810224326767 0 0 0
314 1 7.865655667696245 4.717425413762376 11.006772075314293 0 0 0
315 1 9.43734805203649 3.1438545895083205 9.435213108220385 0 0 0
316 1 11.007332807569401 4.715467419537472 11.004851015748045 0 0 0
317 1 12.577121316537855 3.1426716887191604 9.433453220537363 0 0 0
318 1 14.148367223106613 4.714495940749971 11.004693914356062 0 0 0
319 1 15.717787380073293 3.142619174388713 9.43522554718127 0 0 0
320 1 17.291485612640273 4.714351900317895 11.005848203717107 0 0 0
321 1 18.862472944768413 3.14280615418255 9.437752954882422 0 0 0
322 1 20.43677028099685 4.714758853118217 11.00492171057301 0 0 0
323 1 22.009260187089975 6.290078354859813 9.435665166843238 -1 0 0
324 1 1.572174906709383 7.861750599171313 11.005108124240417 0 0 0
325 1 3.146392666624456 6.2934864446290435 9.438877619480412 0 0 0
326 1 4.719037656027502 7.863529741953833 11.006488491015324 0 0 0
327 1 6.296959952295655 6.295372702629133 9.442622948384924 0 0 0
328 1 7.865773874450568 7.863685040036428 11.007272298828541 0 0 0
329 1 9.439159936173379 6.290932368947182 9.436413492873609 0 0 0
330 1 11.007488685140364 7.860367747949372 11.004909753923174 0 0 0
331 1 12.57835761566558 6.287899687256102 9.433668732788785 0 0 0
332 1 14.148340489763266 7.858507339146815 11.004350803379465 0 0 0
333 1 15.718625408906904 6.288087493116575 9.435148108376824 0 0 0
334 1 17.291667820451227 7.858012329084863 11.004142283894224 0 0 0
335 1 18.863583142145746 6.287979578474966 9.435094101967419 0 0 0
336 1 20.43622972811337 7.8592734534542 11.004235548993964 0 0 0
337 1 22.008444754282685 9.432866607435136 9.43402808356717 -1 0 0
338 1 1.5717638083234788 11.003426764786303 11.004067567482128 0 0 0
339 1 3.1454915337431664 9.435658255062371 9.43542313492451 0 0 0
340 1 4.717577319928147 11.00530203896246 11.004738120884246 0 0 0
341 1 6.292960989951181 9.437386855264949 9.436581187459902 0 0 0
342 1 7.862734057950238 11.005561009091306 11.004823683437253 0 0 0
343 1 9.437988213127376 9.436050784101798 9.435586347577486 0 0 0
344 1 11.00537474875961 11.0033931846315 11.003777993662052 0 0 0
345 1 12.577600936039893 9.431866494473251 9.43285256077548 0 0 0
346 1 14.146743224544137 11.000469166928328 11.002828285684815 0 0 0
347 1 15.718941298236919 9.430198854466521 9.432712690477533 0 0 0
348 1 17.29044113607622 10.999756721818292 11.002799729690613 0 0 0
349 1 18.862984698435852 9.430651407771016 9.433107989856754 0 0 0
350 1 20.43555755165625 11.00108645616487 11.003287924912478 0 0 0
351 1 22.00808670999282 12.572795339679494 9.433038418035471 -1 0 0
352 1 1.571448232143009 14.144299983809166 11.003914462085424 0 0 0
353 1 3.144727107026089 12.57535757432507 9.433626209842148 0 0 0
354 1 4.716786003192843 14.146404071532734 11.00437489569947 0 0 0
355 1 6.29031593948861 12.576841389966338 9.433751682948046 0 0 0
356 1 7.861054197848475 14.146733627322211 11.0039565278061 0 0 0
357 1 9.43407101330739 12.57631617314966 9.432763394279549 0 0 0
358 1 11.002648324884575 14.14538976310315 11.002648824504528 0 0 0
359 1 12.574619588431323 12.57312510588175 9.4311807126237 0 0 0
360 1 14.143269020867097 14.141798358114347 11.00156744278614 0 0 0
361 1 15.716686803805848 12.57033984752279 9.431716965744426 0 0 0
362 1 17.287996566280295 14.140612226072772 11.002200821093258 0 0 0
363 1 18.861914685305624 12.570647941124504 9.432331847499315 0 0 0
364 1 20.434649696471734 14.14191733488308 11.003057161236185 0 0 0
365 1 22.007571754944408 15.713012291649152 9.435203528499152 -1 0 0
366 1 1.5710797412972624 17.28729173344927 11.005810416528787 0 0 0
367 1 3.144818426129534 15.715786524611904 9.435160415955991 0 0 0
368 1 4.71676421288528 17.289466970802554 11.005437856123105 0 0 0
369 1 6.2905633510632475 15.717204873226219 9.434839622592992 0 0 0
370 1 7.860469483922877 17.290333599150095 11.00355334661054 0 0 0
371 1 9.432378374550282 15.718030159569437 9.432264353938534 0 0 0
372 1 11.002004953644915 17.289461089402288 11.002572590110223 0 0 0
373 1 12.571995865984979 15.715782490078162 9.43146398901749 0 0 0
374 1 14.142434695180034 17.286940573758834 11.002241709013024 0 0 0
375 1 15.712490195103852 15.71122118543088 9.433542049791207 0 0 0
376 1 17.285511804983177 17.28399511916064 11.003291508242887 0 0 0
377 1 18.85941317045365 15.71086200899448 9.434999896235128 0 0 0
378 1 20.43385040414592 17.285021686088026 11.004923210293628 0 0 0
379 1 22.00779768108433 18.857051459808297 9.439957732671198 -1 0 0
380 1 1.5705335590730516 20.433869606234072 11.006265561527284 0 0 0
381 1 3.145066775471695 18.8602142797839 9.438422359021816 0 0 0
382 1 4.716589792863788 20.435293342766318 11.004857612597505 0 0 0
383 1 6.28995592667939 18.86239843466446 9.434684766857796 0 0 0
384 1 7.861534287511873 20.434880705688848 11.004086279370819 0 0 0
385 1 9.432628031168933 18.86204587593464 9.432596464512246 0 0 0
386 1 11.00328991371983 20.43446104733662 11.003190062500803 0 0 0
387 1 12.572490835356753 18.86101574842647 9.432009014029685 0 0 0
388 1 14.14409755590211 20.433487854251407 11.003237510082178 0 0 0
389 1 15.712679846361816 18.858108761013778 9.434974642667436 0 0 0
390 1 17.28720220143473 20.4323934716261 11.005096805677713 0 0 0
391 1 18.857035545938512 18.85509351156622 9.441210015346869 0 0 0
392 1 20.43443554611581 20.432408051838863 11.007877563489094 0 0 0
393 1 22.007293426602512 22.005561416586474 12.576213774896642 -1 -1 0
394 1 1.5697070120152996 1.5682198630684623 14.144325045320244 0 0 0
395 1 3.1434207665212397 22.007195028409182 12.573993511575162 0 -1 0
396 1 4.718618584590882 1.570710029554119 14.14068291826711 0 0 0
397 1 6.290081497130037 22.007633475130614 12.573598605402289 0 -1 0
398 1 7.864131368953387 1.570945528321941 14.143476637050249 0 0 0
399 1 9.433525394696014 22.00731149603856 12.574229034791433 0 -1 0
400 1 11.005589832044903 1.5702311702552798 14.145304130233757 0 0 0
401 1 12.574649493561004 22.006892093502213 12.574035797991149 0 -1 0
402 1 14.146339976612326 1.5698861953440704 14.144954582762063 0 0 0
403 1 15.716383015967677 22.006347792805194 12.57361162888042 0 -1 0
404 1 17.2897595284099 1.5689265999204245 14.14424718326297 0 0 0
405 1 18.861794149776877 22.005300031880008 12.575329228658036 0 -1 0
406 1 20.435926979531743 1.5678555088026545 14.146178294523096 0 0 0
407 1 22.008838150892284 3.141952508049871 12.5741682890484 -1 0 0
408 1 1.5724547597864806 4.716744731362736 14.140938290581621 0 0 0
409 1 3.1445126430999157 3.1430861435723454 12.573105803487822 0 0 0
410 1 4.720189937370674 4.718187987986542 14.140524716417426 0 0 0
411 1 6.291905115809192 3.14402948836313 12.574253968787907 0 0 0
412 1 7.86591998278572 4.717427844976766 14.14356885197476 0 0 0
413 1 9.43562426824988 3.143236975753925 12.574961913991416 0 0 0
414 1 11.007462036479744 4.71513311315626 14.145926911235955 0 0 0
415 1 12.576970780688862 3.1423174951988386 12.575025957889055 0 0 0
416 1 14.148407318444315 4.71417301821571 14.145957208265514 0 0 0
417 1 15.719192966659282 3.141798426409712 12.57519348487536 0 0 0
418 1 17.291928220577013 4.71366004015755 14.145201347477846 0 0 0
419 1 18.864145893206953 3.1410339488213292 12.575552205169696 0 0 0
420 1 20.436784891847584 4.714649559496569 14.14377841258715 0 0 0
421 1 22.009162477828287 6.2878820851451875 12.573695398467585 -1 0 0
422 1 1.5726404932278504 7.861759661094348 14.143229952813021 0 0 0
423 1 3.145581639874082 6.289821563211535 12.57388035420718 0 0 0
424 1 4.719674833012991 7.8635792152077855 14.14301219936251 0 0 0
425 1 6.292644089615749 6.29055578702982 12.575195235934219 0 0 0
426 1 7.86552982908761 7.862956271583114 14.144314612067072 0 0 0
427 1 9.436597993948808 6.288758994416098 12.57544542777426 0 0 0
428 1 11.007288239064223 7.8595497099552745 14.145875622232454 0 0 0
429 1 12.577851401648493 6.286575436024747 12.57526460026086 0 0 0
430 1 14.148057608891117 7.857464613727 14.145580545875195 0 0 0
431 1 15.720058702451798 6.285806401070151 12.575203909364674 0 0 0
432 1 17.29141743060795 7.857281950152395 14.144724510502611 0 0 0
433 1 18.864288229631786 6.286022950196881 12.57451849468705 0 0 0
434 1 20.436219025702098 7.8590881390573655 14.143928450129524 0 0 0
435 1 22.008675447358705 9.431092506690163 12.574100497665652 -1 0 0
436 1 1.5718814050944296 11.002920795413328 14.14451961063219 0 0 0
437 1 3.14505967886132 9.4333033787932 12.574589040485375 0 0 0
438 1 4.717539365082259 11.00496306551813 14.145055979975906 0 0 0
439 1 6.2910476969754 9.434296520394387 12.57509195521402 0 0 0
440 1 7.862419980232839 11.00481882433717 14.145278535399086 0 0 0
441 1 9.435383415205585 9.432987900187292 12.575375411537228 0 0 0