LAMMPS data file via write_data, version 2 Aug 2023, timestep = 24, units = metal

687 atoms
3 atom types

0 22.009546999999998 xlo xhi
0 22.009546999999998 ylo yhi
0 22.009546999999998 zlo zhi

Masses

1 183.84
2 1.008
3 4.0026

Atoms # atomic

1 1 21.93248308131189 21.77726208690947 22.00954653285711 -1 -1 -1
2 1 1.6491869642384875 1.5721102858230844 1.8044208057903157 0 0 0
3 1 3.1213022321117294 0.009486800775564035 22.00954678853273 0 0 -1
4 1 4.723541455173213 1.572110504488815 1.5804471434604566 0 0 0
5 1 6.285334022325105 0.0007355530905661651 22.009546999461847 0 0 -1
6 1 7.862621869414872 1.5721104998942184 1.5720201838474492 0 0 0
7 1 9.432707369098011 22.009341384313093 2.9487523534044158e-12 0 -1 0
8 1 11.005359636458039 1.5721104999980178 1.5720768425949063 0 0 0
9 1 12.576297863523166 3.365740388510862e-05 22.00954699999567 0 0 -1
10 1 14.148950130527195 1.572110500001352 1.5723161156923784 0 0 0
11 1 15.719035631622912 9.031625037085174e-05 22.0095469997692 0 0 -1
12 1 17.296323507196384 1.5721104997533508 1.5713749453001553 0 0 0
13 1 18.858115906855346 22.00121037576981 9.79376935106302e-09 0 -1 0
14 1 20.460352032349203 1.57211040307794 1.562625703421761 0 0 0
15 1 21.932475264289685 3.3765217297255776 22.009546532763807 -1 0 -1
16 1 1.5867596133108877 4.724845350524186 1.5968294454646015 0 0 0
17 1 3.121304274499194 3.134735465012787 22.009546788534244 0 0 -1
18 1 4.719403047030895 4.716993392828155 1.5703127129900993 0 0 0
19 1 6.285334003687696 3.1434854459002115 22.009546999461847 0 0 -1
20 1 7.861760582524196 4.716805312474809 1.5716192308724073 0 0 0
21 1 9.432707369335638 3.144426615690227 2.9487523534044158e-12 0 0 0
22 1 11.004571027379262 4.7166518470944485 1.5721112226576852 0 0 0
23 1 12.57629786353506 3.144187342595347 22.00954699999567 0 0 -1
24 1 14.146249091410406 4.716986151743969 1.5724086068431495 0 0 0
25 1 15.719035630974384 3.1441306838085605 22.0095469997692 0 0 -1
26 1 17.282642474235654 4.72104892919157 1.574655386424162 0 0 0
27 1 18.858115993489175 3.1525576363415073 9.793755140208305e-09 0 0 0
28 1 20.39651011647415 4.754429636523188 1.6056088891403997 0 0 0
29 1 22.00385063075201 6.285376296650352 3.266696737495925e-10 -1 0 0
30 1 1.5709996940541926 7.862461538914427 1.5725946308416476 0 0 0
31 1 3.1417311143313764 6.2861528454679725 2.37004019918852e-10 0 0 0
32 1 4.716463080040256 7.861344915786457 1.571634537263029 0 0 0
33 1 6.2895561229533286 6.289964219443965 1.0763301361293998e-10 0 0 0
34 1 7.860903062822514 7.861413461022152 1.5721955847686115 0 0 0
35 1 9.432795211767264 6.289210483144136 22.009546999996676 0 0 -1
36 1 11.003935434399812 7.861290023162546 1.5722955638229674 0 0 0
37 1 12.575086679903668 6.289346162621174 22.00954699999963 0 0 -1
38 1 14.146135374250301 7.862185388164365 1.5726854157013166 0 0 0
39 1 15.715576536795012 6.291689405156349 1.4217960142559605e-11 0 0 0
40 1 17.287845251772428 7.86538346240007 1.573814236641347 0 0 0
41 1 18.853578662823377 6.299845438730865 7.261746759468224e-11 0 0 0
42 1 20.433241473211403 7.869619545978947 1.5738172555121415 0 0 0
43 1 22.00852871738055 9.43378573240634 22.00954699999682 -1 0 -1
44 1 1.5716862324258116 11.005381197022565 1.572114012093585 0 0 0
45 1 3.1438747080763663 9.432758446838411 22.0095469999908 0 0 -1
46 1 4.71626551968962 11.005115231223316 1.572014047175454 0 0 0
47 1 6.288507139401269 9.433340662533492 22.009546999999188 0 0 -1
48 1 7.860335776708604 11.005094561997876 1.5721334854674416 0 0 0
49 1 9.432172661977802 9.433223303106777 22.00954699999987 0 0 -1
50 1 11.003737360184886 11.005121036751753 1.5722412031696285 0 0 0
51 1 12.575171710021937 9.433490827979515 22.009546999999994 0 0 -1
52 1 14.146882229358273 11.005451036363725 1.5724643625650192 0 0 0
53 1 15.717914098309212 9.434747565831678 22.00954699999995 0 0 -1
54 1 17.290527081498105 11.00640210594523 1.5728238031438908 0 0 0
55 1 18.86142616876215 9.437332731847718 22.009546999999614 0 0 -1
56 1 20.43620997718057 11.006712456328744 1.5724592305526668 0 0 0
57 1 22.009003130203737 12.576883999999694 22.00954699999957 -1 0 -1
58 1 1.5716862324241478 14.148386802984056 1.5721140120925055 0 0 0
59 1 3.1440456430960633 12.576884000003322 22.009546999999756 0 0 -1
60 1 4.716265519687079 14.148652768784519 1.5720140471734203 0 0 0
61 1 6.288298613002027 12.576883999999863 22.009546999999692 0 0 -1
62 1 7.860335776708749 14.14867343800187 1.5721334854674123 0 0 0
63 1 9.432005379815923 12.576883999999987 22.009546999999987 0 0 -1
64 1 11.003737360184896 14.148646963248249 1.572241203169633 0 0 0
65 1 12.575272330107774 12.576883999999982 0 0 0 0
66 1 14.146882229358235 14.148316963636216 1.5724643625647552 0 0 0
67 1 15.718694082950591 12.576884000000275 9.033349051133934e-15 0 0 0
68 1 17.290527081501562 14.147365894062979 1.5728238031426727 0 0 0
69 1 18.8632292430107 12.576884000002432 22.009546999999802 0 0 -1
70 1 20.43620997718078 14.14705554364481 1.5724592305507097 0 0 0
71 1 22.008528717402356 15.71998226765492 22.00954699999682 -1 0 -1
72 1 1.5709996940707756 17.291306461023073 1.572594630671859 0 0 0
73 1 3.143874708109632 15.721009553259417 22.0095469999908 0 0 -1
74 1 4.716463079982959 17.29242308441236 1.5716345371442058 0 0 0
75 1 6.288507139398142 15.720427337439517 22.009546999999188 0 0 -1
76 1 7.860903062867201 17.292354538932926 1.5721955848026252 0 0 0
77 1 9.432172661976129 15.720544696894883 22.009546999999873 0 0 -1
78 1 11.003935434400152 17.29247797683738 1.5722955638229494 0 0 0
79 1 12.575171710022055 15.720277172020399 0 0 0 0
80 1 14.14613537426154 17.29158261184247 1.5726854156993708 0 0 0
81 1 15.717914098307997 15.719020434167785 22.00954699999995 0 0 -1
82 1 17.28784525155281 17.288384537380313 1.5738142366009777 0 0 0
83 1 18.86142616869708 15.716435267999529 22.009546999999614 0 0 -1
84 1 20.433241473288557 17.28414845617981 1.5738172555125178 0 0 0
85 1 22.003850633097336 18.868391597024917 3.266752535102297e-10 -1 0 0
86 1 1.5867596953562748 20.428922629883957 1.596829504268947 0 0 0
87 1 3.1417311181544547 18.867615141201256 2.369932522813817e-10 0 0 0
88 1 4.719403060311708 20.436774592586065 1.5703127285071226 0 0 0
89 1 6.2895561209228505 18.863803782546587 1.0763301361293998e-10 0 0 0
90 1 7.861760582266741 20.436962687665527 1.571619230735363 0 0 0
91 1 9.432795211822977 18.864557516830363 22.009546999996676 0 0 -1
92 1 11.00457102737273 20.43711615290767 1.5721112226559872 0 0 0
93 1 12.575086679907487 18.86442183737984 22.00954699999963 0 0 -1
94 1 14.146249091361657 20.436781848249836 1.5724086068447731 0 0 0
95 1 15.715576536605555 18.862078594731887 1.4214407428880804e-11 0 0 0
96 1 17.282642477659294 20.432719071087295 1.5746553863047879 0 0 0
97 1 18.853578657104073 18.853922556097128 7.261036216732464e-11 0 0 0
98 1 20.396509818783848 20.399338119089183 1.6056092212183575 0 0 0
99 1 21.994897930331724 21.984828088076398 3.152734816319626 -1 -1 0
100 1 1.5778068706448316 1.57211050014972 4.713265733677423 0 0 0
101 1 3.185147202726196 21.976048813741272 3.1823189849494207 0 -1 0
102 1 4.728078833754979 1.572110500033287 4.727734935637035 0 0 0
103 1 6.299015026939488 22.007002113226907 3.1489384285694575 0 -1 0
104 1 7.8660809630922754 1.572110500006516 4.719578905089548 0 0 0
105 1 9.435408408604557 22.009248893150698 3.144875651770385 0 -1 0
106 1 11.006570820098672 1.572110499999831 4.717235662621803 0 0 0
107 1 12.577086472619627 22.00954627734135 3.1445413470946275 0 -1 0
108 1 14.14886228826512 1.572110499998478 4.717099983129251 0 0 0
109 1 15.719896917171637 0.0004912690850433323 3.144694812664878 0 0 0
110 1 17.292101375863286 1.5721105000493352 4.717853720604166 0 0 0
111 1 18.86225446222092 0.0017977926669591666 3.1448828832172215 0 0 0
112 1 20.439926387930786 1.572110500108629 4.7140423376836615 0 0 0
113 1 21.994897933460994 3.1689399111020453 3.1527348304896674 -1 0 0
114 1 1.5735071793475957 4.722371812767575 4.726289890578935 0 0 0
115 1 3.1851472055354875 3.1777191901472714 3.182318989235779 0 0 0
116 1 4.730216103775785 4.7287843579702935 4.7300400341139515 0 0 0
117 1 6.299015027483157 3.146765886598262 3.148938429068749 0 0 0
118 1 7.865706641538303 4.718718406545405 4.719097233775557 0 0 0
119 1 9.435408408576688 3.1445191068448226 3.1448756517513448 0 0 0
120 1 11.006107458137114 4.716854188346182 4.717049755095987 0 0 0
121 1 12.577086472618001 3.1442217226586613 3.1445413470952603 0 0 0
122 1 14.148315053081276 4.7165049965072505 4.716988861155077 0 0 0
123 1 15.71989691726966 3.1437297309378254 3.1446948125965872 0 0 0
124 1 17.290614801689202 4.716973145513519 4.718222934251144 0 0 0
125 1 18.862254461271235 3.1424232052082677 3.1448828839081737 0 0 0
126 1 20.430855998477778 4.724123004785354 4.727399177273799 0 0 0
127 1 22.008150319373875 6.298400388615766 3.150261310747491 -1 0 0
128 1 1.5726819076136618 7.864642968173833 4.719705868087517 0 0 0
129 1 3.150801501111287 6.299509678401309 3.1520125038225024 0 0 0
130 1 4.719821947753716 7.865824632011172 4.719875644053469 0 0 0
131 1 6.291042698173127 6.2903334341078 3.1448626453485247 0 0 0
132 1 7.862022642507439 7.862037701992409 4.7170877148248485 0 0 0
133 1 9.43334244691576 6.289099361154911 3.1443944965045 0 0 0
134 1 11.004575679352342 7.8612680736240925 4.716829249169787 0 0 0
135 1 12.57555004186336 6.289160255096042 3.1447436883463866 0 0 0
136 1 14.146677538783933 7.861950699132179 4.717763812260621 0 0 0
137 1 15.715950858416791 6.291207733771165 3.1466079065646446 0 0 0
138 1 17.287830348499313 7.865476711572933 4.721216241965587 0 0 0
139 1 18.85144139994208 6.302150530354032 3.1566738543892296 0 0 0
140 1 20.4353660492147 7.865212374916317 4.719854273687064 0 0 0
141 1 22.009095246226273 9.43600944516638 3.1458381030951874 -1 0 0
142 1 1.5722541752526613 11.00600854886313 4.717514654999342 0 0 0
143 1 3.1444781981381915 9.435185436170135 3.144932949697728 0 0 0
144 1 4.716932810415559 11.005961044540893 4.716982170248751 0 0 0
145 1 6.288774368362664 9.433549623949931 3.1442202153527883 0 0 0
146 1 7.860751024570256 11.00524260215799 4.716490207698853 0 0 0
147 1 9.432436137191054 9.433253904456004 3.14439537581758 0 0 0
148 1 11.00413815839733 11.005123803255307 4.716669170699544 0 0 0
149 1 12.5754041632443 9.433456648837945 3.1447229819357445 0 0 0
150 1 14.14729205107137 11.005386279816948 4.717222492865628 0 0 0
151 1 15.718203793895258 9.434645189054837 3.1455330382169815 0 0 0
152 1 17.291056082877674 11.006261302736519 4.718022041045749 0 0 0
153 1 18.862259748694612 9.437161994667546 3.146457773416137 0 0 0
154 1 20.436562913586688 11.006190404129885 4.717748018644168 0 0 0
155 1 22.009215556353762 12.576884000003032 3.144959568820726 -1 0 0
156 1 1.5722541752506725 14.147759451141301 4.7175146549967915 0 0 0
157 1 3.14418373134194 12.576883999999747 3.144412715003783 0 0 0
158 1 4.716932810415585 14.147806955459176 4.716982170248894 0 0 0
159 1 6.288480604234812 12.576883999999861 3.1442083648695474 0 0 0
160 1 7.860751024570384 14.148525397841725 4.716490207698998 0 0 0
161 1 9.432214964285379 12.576884000000002 3.144344954416308 0 0 0
162 1 11.004138158397314 14.148644196744701 4.716669170699534 0 0 0
163 1 12.575483513740314 12.576884000000003 3.144609512785702 0 0 0
164 1 14.147292051071199 14.148381720182874 4.71722249286579 0 0 0
165 1 15.718933145736584 12.576884000000012 3.1451004257486455 0 0 0
166 1 17.29105608287797 14.147506697265015 4.718022041045161 0 0 0
167 1 18.86370539468965 12.57688400000031 3.145226575973557 0 0 0
168 1 20.43656291358842 14.14757759588299 4.717748018638922 0 0 0
169 1 22.00909524624205 15.717758554612844 3.145838103180943 -1 0 0
170 1 1.572681907721641 17.289125031637177 4.719705868280705 0 0 0
171 1 3.1444781981427212 15.718582563799194 3.144932949703189 0 0 0
172 1 4.719821947792692 17.28794336791274 4.719875644128633 0 0 0
173 1 6.288774368357079 15.720218376060343 3.1442202153478074 0 0 0
174 1 7.86202264250321 17.291730298011686 4.717087714820955 0 0 0
175 1 9.432436137191246 15.720514095543784 3.1443953758175462 0 0 0
176 1 11.004575679352877 17.292499926375832 4.716829249169864 0 0 0
177 1 12.575404163244238 15.720311351162099 3.1447229819358196 0 0 0
178 1 14.146677538785902 17.291817300868868 4.717763812259814 0 0 0
179 1 15.718203793908977 15.719122810958908 3.1455330382138817 0 0 0
180 1 17.287830348344304 17.288291288271736 4.721216242120713 0 0 0
181 1 18.862259748673296 15.716606005224909 3.1464577734453285 0 0 0
182 1 20.43536604917621 17.288555624642548 4.719854274132574 0 0 0
183 1 22.008150317121796 18.855367614945234 3.1502613074681802 -1 0 0
184 1 1.5735071794439988 20.43139618712679 4.7262898903093395 0 0 0
185 1 3.1508015004561742 18.85425832331144 3.1520125022569627 0 0 0
186 1 4.730216103916619 20.42498364196801 4.730040034113904 0 0 0
187 1 6.291042697854604 18.86343456621775 3.144862645022888 0 0 0
188 1 7.865706641579372 20.435049593444884 4.719097233816954 0 0 0
189 1 9.43334244690636 18.864668638849675 3.144394496499063 0 0 0
190 1 11.006107458136974 20.43691381165405 4.717049755095992 0 0 0
191 1 12.575550041864192 18.864607744903836 3.1447436883465425 0 0 0
192 1 14.148315053085325 20.43726300349346 4.716988861150986 0 0 0
193 1 15.71595085830197 18.86256026619619 3.146607906606443 0 0 0
194 1 17.29061480176585 20.436794854523598 4.718222934177021 0 0 0
195 1 18.851441406065973 18.851617475977047 3.156673848416393 0 0 0
196 1 20.430855998445207 20.429644995145328 4.727399173675781 0 0 0
197 1 0.0011108059953814037 22.009062869082925 6.290351039067659 0 -1 0
198 1 1.5731287826328086 1.5721104999985434 7.861675232443736 0 0 0
199 1 3.1484160268300587 22.007840244480146 6.297509047342276 0 -1 0
200 1 4.720231331199017 1.5721104999998259 7.86522223175709 0 0 0
201 1 6.293812248088045 22.007843263326293 6.293272962271891 0 -1 0
202 1 7.863743401690207 1.5721104999999795 7.862637065831509 0 0 0
203 1 9.43552212575586 22.008972084297145 6.2900748881676565 0 -1 0
204 1 11.00648578997814 1.5721104999999997 7.861380327979468 0 0 0
205 1 12.577722065600286 22.009361936176834 6.289179523162626 0 -1 0
206 1 14.149484838021227 1.5721104999999436 7.86111280310774 0 0 0
207 1 15.720754437204752 22.009461915251503 6.289302960992973 0 -1 0
208 1 17.29315036059694 1.5721104999996303 7.861230162517822 0 0 0
209 1 18.865194419892635 0.0004759627018790842 6.289234415970166 0 0 0
210 1 20.437782791943242 1.5721104999957842 7.860647946893799 0 0 0
211 1 0.001110805969272203 3.144705130932494 6.290351038948704 0 0 0
212 1 1.5725622537804957 4.71794860304382 7.8638989450341565 0 0 0
213 1 3.1484160268330297 3.1459277555151135 6.297509047291482 0 0 0
214 1 4.719397751292119 4.718568273398561 7.865051494599383 0 0 0
215 1 6.29381224809379 3.1459247366686527 6.293272962270494 0 0 0
216 1 7.863453706113132 4.71764353821881 7.862534689063181 0 0 0
217 1 9.435522125756266 3.144795915702621 6.290074888168196 0 0 0
218 1 11.006253336755663 4.716833481935709 7.861346148837979 0 0 0
219 1 12.577722065600348 3.1444060638230473 6.289179523162556 0 0 0
220 1 14.149221362809158 4.7165058758176 7.861143404455786 0 0 0
221 1 15.72075443720388 3.1443060847487807 6.289302960994938 0 0 0
222 1 17.292883131635513 4.716330715355927 7.8614391239544945 0 0 0
223 1 18.865194419914456 3.1437450373191194 6.289234415926045 0 0 0
224 1 20.437179301865694 4.717043449694285 7.8630749361807935 0 0 0
225 1 22.00897559246381 6.291816367981362 6.292532468143831 -1 0 0
226 1 1.5724377618132446 7.862378083881838 7.862478294599665 0 0 0
227 1 3.1462914507629254 6.291964773418722 6.293101874662057 0 0 0
228 1 4.717857591733936 7.862629372173294 7.862547309812887 0 0 0
229 1 6.293827151403288 6.293326741869872 6.293366211473236 0 0 0
230 1 7.86285534059323 7.862587270335131 7.862230707748896 0 0 0
231 1 9.434979961217245 6.289874312260977 6.289840199132813 0 0 0
232 1 11.005627623616004 7.861339226115608 7.861250510596458 0 0 0
233 1 12.57708182064789 6.288939749169783 6.289157573624042 0 0 0
234 1 14.148431229603467 7.861108261976755 7.861436108506037 0 0 0
235 1 15.719634857495983 6.289198214828369 6.289927201988848 0 0 0
236 1 17.291477263671123 7.862105449163572 7.862803620717187 0 0 0
237 1 18.86183555225241 6.291986144026593 6.293714132025818 0 0 0
238 1 20.436693926686754 7.8621732220833955 7.862482203489039 0 0 0
239 1 22.009219738183013 9.434588794595728 6.290267583876295 -1 0 0
240 1 1.57226203812077 11.00547901178136 7.86152589621061 0 0 0
241 1 3.1449635733117227 9.434592703492418 6.29006272208259 0 0 0
242 1 4.7170232779386545 11.005520389040962 7.86134057355484 0 0 0
243 1 6.290180236328885 9.434914120718028 6.289994949164016 0 0 0
244 1 7.861475717717949 11.005530921447956 7.861244898012176 0 0 0
245 1 9.433226270396542 9.433546608506058 6.288997761976744 0 0 0
246 1 11.004758836548191 11.005170098228373 7.860986112976221 0 0 0
247 1 12.576029876384194 9.433361010596363 6.28922872611552 0 0 0
248 1 14.147922114731289 11.00523561255956 7.861446881913474 0 0 0
249 1 15.718802159408352 9.434341207747213 6.2904767703334965 0 0 0
250 1 17.29210590482209 11.005402996072245 7.861697867647247 0 0 0
251 1 18.863799908270355 9.434657809803808 6.290518872164255 0 0 0
252 1 20.436910784929164 11.005442033523197 7.8616308154070405 0 0 0
253 1 22.009319045882112 12.576883999999763 6.289605135180008 -1 0 0
254 1 1.5722620381208001 14.148288988218416 7.86152589621082 0 0 0
255 1 3.1446463278825587 12.576884000000035 6.289354691613401 0 0 0
256 1 4.7170232779387185 14.148247610958986 7.861340573554885 0 0 0
257 1 6.28915470926258 12.576884000000113 6.28904812323832 0 0 0
258 1 7.861475717717886 14.148237078552118 7.861244898012122 0 0 0
259 1 9.432717926215986 12.576883999999964 6.288704843107309 0 0 0
260 1 11.004758836548215 14.148597901771623 7.860986112976222 0 0 0
261 1 12.575985891740887 12.576883999999993 6.2890090520420765 0 0 0
262 1 14.1479221147315 14.148532387440676 7.861446881913262 0 0 0
263 1 15.71947659041251 12.576884000000344 6.2897240196380935 0 0 0
264 1 17.29210590482182 14.148365003927426 7.861697867647547 0 0 0
265 1 18.86428037896025 12.576883999999867 6.28973928666843 0 0 0
266 1 20.436910784929225 14.148325966476072 7.861630815407759 0 0 0
267 1 22.00921973817723 15.719179205413091 6.290267583866072 -1 0 0
268 1 1.5724377618128047 17.29138991611915 7.862478294597429 0 0 0
269 1 3.144963573309022 15.71917529651414 6.290062722076077 0 0 0
270 1 4.717857591733999 17.291138627826733 7.862547309812903 0 0 0
271 1 6.29018023632824 15.718853879282484 6.289994949163612 0 0 0
272 1 7.862855340593229 17.29118072966486 7.862230707748992 0 0 0
273 1 9.433226270396657 15.720221391493824 6.288997761976863 0 0 0
274 1 11.005627623615968 17.292428773884417 7.861250510596449 0 0 0
275 1 12.576029876384547 15.720406989403791 6.289228726115366 0 0 0
276 1 14.148431229603393 17.292659738023133 7.8614361085061 0 0 0
277 1 15.718802159410819 15.719426792255332 6.290476770330959 0 0 0
278 1 17.29147726367172 17.291662550837533 7.862803620715427 0 0 0
279 1 18.863799908277553 15.719110190211367 6.290518872149141 0 0 0
280 1 20.43669392668695 17.291594777921716 7.862482203476916 0 0 0
281 1 22.008975592485807 18.861951632004608 6.292532468282115 -1 0 0
282 1 1.5725622537760608 20.435819396956834 7.863898945032142 0 0 0
283 1 3.146291450763171 18.861803226588176 6.2931018746748535 0 0 0
284 1 4.719397751291268 20.435199726601756 7.86505149459279 0 0 0
285 1 6.293827151394978 18.860441258135523 6.29336621146128 0 0 0
286 1 7.8634537061133525 20.43612446178122 7.8625346890632875 0 0 0
287 1 9.434979961217035 18.86389368773936 6.289840199132725 0 0 0
288 1 11.006253336755664 20.43693451806427 7.861346148837988 0 0 0
289 1 12.57708182064777 18.86482825083018 6.289157573624004 0 0 0
290 1 14.149221362809348 20.437262124182396 7.861143404455609 0 0 0
291 1 15.71963485750578 18.864569785169586 6.289927201978994 0 0 0
292 1 17.292883131637893 20.437437284643707 7.8614391239522075 0 0 0
293 1 18.861835552224434 18.86178185594518 6.293714132124427 0 0 0
294 1 20.437179301867754 20.436724550305968 7.8630749362287595 0 0 0
295 1 0.0004242675728611543 22.009543487905646 9.433270697024216 0 -1 0
296 1 1.5726543697962119 1.5721104999998046 11.004773499999333 0 0 0
297 1 3.1454475228197385 22.00919826944614 9.434601956312617 0 -1 0
298 1 4.7184282569893705 1.5721104999999105 11.004773500005305 0 0 0
299 1 6.291130418504114 22.008833696855255 9.434291605950214 0 -1 0
300 1 7.862963417049419 1.5721105000000053 11.004773500000598 0 0 0
301 1 9.434775270641717 22.00919313743482 9.433340536363705 0 -1 0
302 1 11.006385169892225 1.5721105000000015 11.00477349999996 0 0 0
303 1 12.577920139815099 22.009416296830384 9.433010536751771 0 -1 0
304 1 14.149652120184074 1.5721104999999953 11.00477349999997 0 0 0
305 1 15.721321723291478 22.009524014532325 9.432984061997779 0 -1 0
306 1 17.293358886997968 1.5721104999998603 11.0047734999997 0 0 0
307 1 18.86539198030892 9.645282313203033e-05 9.43300473122814 0 0 0
308 1 20.43761185690391 1.5721104999998912 11.004773500007248 0 0 0
309 1 0.0004242675730630149 3.144224512094251 9.433270697025595 0 0 0
310 1 1.572441943646251 4.717070068820743 11.004773500006616 0 0 0
311 1 3.1454475228195817 3.144569730553814 9.434601956312743 0 0 0
312 1 4.717952105310327 4.7173370759735604 11.004773500000677 0 0 0
313 1 6.291130418504054 3.1449343031446633 9.434291605950213 0 0 0
314 1 7.862724354263435 4.717210925748645 11.004773500000029 0 0 0
315 1 9.43477527064171 3.1445748625651784 9.433340536363696 0 0 0
316 1 11.006173986259684 4.716720012785704 11.004773500000008 0 0 0
317 1 12.577920139815113 3.144351703169622 9.433010536751762 0 0 0
318 1 14.149442535714613 4.71645545441631 11.004773500000002 0 0 0
319 1 15.721321723291476 3.1442439854675395 9.43298406199775 0 0 0
320 1 17.29317689576527 4.716318864869578 11.004773499999695 0 0 0
321 1 18.865391980308896 3.144124547176739 9.43300473122797 0 0 0
322 1 20.437473768657973 4.716523215003833 11.004773499999452 0 0 0
323 1 22.009403324746096 6.289625155000842 9.43389804886522 -1 0 0
324 1 1.5723384541178267 7.861715635179942 11.004773499999484 0 0 0
325 1 3.145094586414352 6.2898585186473674 9.434079904137642 0 0 0
326 1 4.7173771210397195 7.861849786668422 11.00477349999971 0 0 0
327 1 6.290601417122521 6.290132541046143 9.434150802737514 0 0 0
328 1 7.862180909587508 7.861834519638114 11.004773500000752 0 0 0
329 1 9.434365448928524 6.289332992865523 9.433275779816833 0 0 0
330 1 11.00567160825911 7.861119552042073 11.004773499999983 0 0 0
331 1 12.577519341602654 6.288779670699555 9.433013303255317 0 0 0
332 1 14.148939573784002 7.8608153431073164 11.004773499999926 0 0 0
333 1 15.720906475429834 6.2886007076988095 9.433132102157861 0 0 0
334 1 17.292502790737533 7.861158623238211 11.004773500000251 0 0 0
335 1 18.86472468958446 6.2890926702485945 9.433850544540572 0 0 0
336 1 20.437011172117398 7.861465191613329 11.004773500000079 0 0 0
337 1 22.009395461879276 9.433636396210513 9.43336851178128 -1 0 0
338 1 1.5722565364259162 11.005290211768367 11.004773500000034 0 0 0
339 1 3.144746715070852 9.433741315406587 9.433331533522743 0 0 0
340 1 4.7169571710299385 11.00531839658905 11.004773500000033 0 0 0
341 1 6.289551595177708 9.433808367647039 9.433292496071997 0 0 0
342 1 7.861366634814994 11.005299075384462 11.004773499999967 0 0 0
343 1 9.433735385268854 9.433557381913614 9.43312511255972 0 0 0
344 1 11.005130818835326 11.005102501079277 11.004773500000015 0 0 0
345 1 12.576898663451814 9.433096612976222 9.433059598228377 0 0 0
346 1 14.14843388651083 11.005105826612548 11.004773500000008 0 0 0
347 1 15.720181782282134 9.433355398012086 9.433420421447796 0 0 0
348 1 17.292528007413697 11.005126956748333 11.004773499999995 0 0 0
349 1 18.86463422206128 9.433451073554856 9.433409889041044 0 0 0
350 1 20.437050376467493 11.005220552538201 11.004773500000013 0 0 0
351 1 22.009400963574087 12.576884000000017 9.433179711768368 -1 0 0
352 1 1.572256536425922 14.148477788231634 11.004773500000034 0 0 0
353 1 3.144607123532507 12.576884000000007 9.433110052538208 0 0 0
354 1 4.716957171029937 14.148449603410953 11.004773500000033 0 0 0
355 1 6.289129492586289 12.576883999999998 9.433016456748318 0 0 0
356 1 7.861366634814987 14.148468924615543 11.004773499999967 0 0 0
357 1 9.433223613489181 12.576884000000003 9.432995326612561 0 0 0
358 1 11.005130818835328 14.14866549892072 11.004773500000015 0 0 0
359 1 12.576526681164674 12.576884000000007 9.432992001079276 0 0 0
360 1 14.148433886510848 14.148662173387468 11.004773500000008 0 0 0
361 1 15.720290865185 12.576883999999986 9.433188575384467 0 0 0
362 1 17.292528007413676 14.148641043251644 11.004773499999995 0 0 0
363 1 18.864700328970063 12.576884000000016 9.433207896589053 0 0 0
364 1 20.4370503764675 14.14854744746181 11.004773500000013 0 0 0
365 1 22.00939546187932 15.720131603789433 9.433368511781373 -1 0 0
366 1 1.5723384541177308 17.292052364820158 11.004773499999484 0 0 0
367 1 3.144746715070828 15.72002668459345 9.433331533522724 0 0 0
368 1 4.717377121039682 17.291918213331595 11.00477349999971 0 0 0
369 1 6.289551595177654 15.719959632352996 9.433292496071925 0 0 0
370 1 7.862180909587517 17.291933480361873 11.004773500000754 0 0 0
371 1 9.433735385268866 15.72021061808637 9.433125112559745 0 0 0
372 1 11.005671608259107 17.29264844795793 11.004773499999983 0 0 0
373 1 12.576898663451802 15.720671387023778 9.433059598228384 0 0 0
374 1 14.148939573783986 17.292952656892677 11.004773499999924 0 0 0
375 1 15.720181782282332 15.720412601988103 9.433420421447476 0 0 0
376 1 17.292502790737714 17.292609376761966 11.004773500000251 0 0 0
377 1 18.864634222061113 15.720316926445074 9.433409889041231 0 0 0
378 1 20.437011172117337 17.292302808386793 11.004773500000079 0 0 0
379 1 22.009403324746053 18.864142844999254 9.433898048864256 -1 0 0
380 1 1.5724419436463015 20.436697931179335 11.004773500006618 0 0 0
381 1 3.1450945864144018 18.863909481352607 9.434079904137699 0 0 0
382 1 4.717952105310229 20.436430924026503 11.00477350000068 0 0 0
383 1 6.290601417122447 18.8636354589539 9.434150802737465 0 0 0
384 1 7.862724354263445 20.436557074251354 11.004773500000027 0 0 0
385 1 9.434365448928522 18.864435007134492 9.43327577981682 0 0 0
386 1 11.006173986259682 20.437047987214296 11.004773500000006 0 0 0
387 1 12.577519341602645 18.86498832930043 9.433013303255324 0 0 0
388 1 14.1494425357146 20.437312545583683 11.004773500000002 0 0 0
389 1 15.720906475429878 18.86516729230114 9.433132102157895 0 0 0
390 1 17.293176895765427 20.43744913513039 11.004773499999695 0 0 0
391 1 18.864724689584467 18.864675329751552 9.43385054454002 0 0 0
392 1 20.437473768657863 20.437244784996135 11.004773499999452 0 0 0
393 1 0.0004242675764933324 22.009543487907997 12.576276302990227 0 -1 0
394 1 1.5731287825852378 1.5721104999985438 14.147871767689944 0 0 0
395 1 3.1454475228192873 22.00919826945041 12.574945043629693 0 -1 0
396 1 4.720231331340988 1.5721104999998248 14.144324767909639 0 0 0
397 1 6.291130418496578 22.008833696857913 12.575255394067701 0 -1 0
398 1 7.863743401692857 1.5721104999999778 14.146909934167319 0 0 0
399 1 9.434775270641797 22.009193137435396 12.576206463636161 0 -1 0
400 1 11.006485789977878 1.5721104999999997 14.148166672020348 0 0 0
401 1 12.577920139815074 22.009416296830373 12.57653646324823 0 -1 0
402 1 14.149484838024879 1.5721104999999431 14.148434196895883 0 0 0
403 1 15.721321723291158 22.009524014532385 12.576562938001668 0 -1 0
404 1 17.29315036060376 1.5721104999996294 14.148316837423291 0 0 0
405 1 18.865391980314463 9.645282757153478e-05 12.576542268788954 0 0 0
406 1 20.437782791870656 1.5721104999957851 14.148899053319647 0 0 0
407 1 0.0004242675766927291 3.1442245120918964 12.576276302988852 0 0 0
408 1 1.5725622537460733 4.717948603230923 14.145648054484157 0 0 0
409 1 3.1454475228191305 3.1445697305495437 12.574945043629565 0 0 0
410 1 4.719397751338629 4.71856827346225 14.14449550516598 0 0 0
411 1 6.291130418496519 3.1449343031420054 12.575255394067703 0 0 0
412 1 7.863453706083205 4.71764353821205 14.14701231096681 0 0 0
413 1 9.434775270641792 3.1445748625646033 12.576206463636172 0 0 0
414 1 11.006253336755805 4.716833481935874 14.148200851162118 0 0 0
415 1 12.577920139815086 3.14435170316963 12.57653646324824 0 0 0
416 1 14.14922136280874 4.716505875817527 14.148403595543753 0 0 0
417 1 15.721321723291158 3.1442439854674764 12.576562938001695 0 0 0
418 1 17.292883131647695 4.716330715345061 14.148107876067924 0 0 0
419 1 18.86539198031444 3.1441245471722996 12.576542268789124 0 0 0
420 1 20.43717930185581 4.717043449706199 14.146472063752293 0 0 0
421 1 22.009403324750437 6.289625154995277 12.57564895114445 -1 0 0
422 1 1.572437761825858 7.862378083859532 14.147068705419573 0 0 0
423 1 3.1450945864105724 6.289858518635921 12.575467095890447 0 0 0
424 1 4.71785759171823 7.8626293721403195 14.146999690220218 0 0 0
425 1 6.290601417121887 6.290132541044861 12.57539619726583 0 0 0
426 1 7.862855340587848 7.862587270329596 14.147316292256658 0 0 0
427 1 9.434365448928899 6.289332992865877 12.576271220182779 0 0 0
428 1 11.005627623615233 7.86133922611527 14.148296489403878 0 0 0
429 1 12.577519341602688 6.288779670699533 12.576533696744699 0 0 0
430 1 14.148431229603217 7.861108261977015 14.148110891493705 0 0 0
431 1 15.720906475429553 6.288600707699127 12.576414897841522 0 0 0
432 1 17.29147726367253 7.862105449162691 14.146743379283933 0 0 0
433 1 18.864724689584396 6.289092670248907 12.575696455459584 0 0 0
434 1 20.436693926692644 7.862173222069186 14.147064796525267 0 0 0
435 1 22.009395461879205 9.433636396210971 12.57617848821823 -1 0 0
436 1 1.572262038120676 11.005479011781562 14.148021103789276 0 0 0
437 1 3.144746715070724 9.433741315408154 12.57621546647566 0 0 0
438 1 4.717023277939016 11.00552038904137 14.14820642644501 0 0 0
439 1 6.289551595178298 9.433808367647694 12.576254503927283 0 0 0
440 1 7.861475717717525 11.005530921447257 14.148302101988241 0 0 0