LAMMPS data file via write_data, version 2 Aug 2023, timestep = 28, units = metal

687 atoms
3 atom types

0 22.009546999999998 xlo xhi
0 22.009546999999998 ylo yhi
0 22.009546999999998 zlo zhi

Masses

1 183.84
2 1.008
3 4.0026

Atoms # atomic

126 1 18.868485736946305 9.433416334170223 6.289456228507952 0 0 0
2 1 1.5673904704759418 1.5719844719172142 1.5721086448175516 0 0 0
398 1 17.298537072472783 11.004769899135677 4.71468774758304 0 0 0
4 1 4.708981107411475 1.5704778991052757 1.5721082733456127 0 0 0
125 1 15.727175859365607 9.43112858424698 6.281244299085077 0 0 0
6 1 7.8562003730423315 1.5694326991288112 1.5721075070295325 0 0 0
124 1 12.58397897238407 9.42553361253485 6.261179482887274 0 0 0
8 1 11.006280616770455 1.5692446301104994 1.5721075423025197 0 0 0
123 1 9.430754914227391 9.419880288022243 6.266118430587862 0 0 0
10 1 14.155476350607437 1.5697974963112398 1.5721077852055734 0 0 0
122 1 6.286765311701247 9.430994039630932 6.28535068929017 0 0 0
12 1 17.300253297977118 1.571054645128372 1.5721073150885703 0 0 0
121 1 3.1462036873668575 9.43421267468333 6.291499835487506 0 0 0
14 1 20.439253740913877 1.5724710056553757 1.57210801021567 0 0 0
399 1 20.440473243687993 11.00477027399093 4.717930236059129 0 0 0
16 1 1.5693007221776945 4.717344832526578 1.5721085287457013 0 0 0
17 1 3.1373072466259884 3.1427094038000982 0.0013942171898097483 0 0 0
18 1 4.709266451467059 4.713693258774778 1.57210826647711 0 0 0
19 1 6.281214933991381 3.1396077157924545 0.0035140957708698793 0 0 0
20 1 7.855562438489401 4.710481405397291 1.572107708849998 0 0 0
21 1 9.430843914474865 3.138193836586718 0.004322209875509199 0 0 0
22 1 11.006417983884917 4.709757210220913 1.5721069437808626 0 0 0
23 1 12.58188383320068 3.1386091945802552 0.0041229845391574215 0 0 0
24 1 14.156492110100134 4.711317726411667 1.5721069294579713 0 0 0
25 1 15.729613615828013 3.1405966415097577 0.002684032332812507 0 0 0
26 1 17.300146782794076 4.715095820101384 1.572107587095272 0 0 0
27 1 18.87018688001768 3.144173881852882 7.113198996333965e-05 0 0 0
28 1 20.439902091888005 4.717433699489343 1.5721084495660864 0 0 0
396 1 11.004998936401478 11.004770945821768 4.701054257112938 0 0 0
30 1 1.5714306154929902 7.861796548411531 1.5721085000109354 0 0 0
31 1 3.1404617248932603 6.288945149822812 0.00012373186435623247 0 0 0
32 1 4.712393952404896 7.860332789492789 1.5721078954174212 0 0 0
33 1 6.281615781975932 6.28391394692055 0.004919847627706399 0 0 0
34 1 7.856450364072443 7.8573801507376775 1.57210656895244 0 0 0
35 1 9.430357994977408 6.280817425542271 0.007851710913907918 0 0 0
36 1 11.005860838057556 7.856397635096197 1.5721073884841927 0 0 0
37 1 12.582507789635393 6.281623823625898 0.0077357428230779 0 0 0
38 1 14.155466169541135 7.857736143761964 1.572106930788529 0 0 0
39 1 15.72898591049198 6.285481775265579 0.002962197735786486 0 0 0
40 1 17.29937972301205 7.860064837090473 1.5721074834827853 0 0 0
395 1 7.858472905717526 11.004771100711197 4.710042043338934 0 0 0
42 1 20.440406522881272 7.8615880614870735 1.5721080786266226 0 0 0
394 1 4.7155948008144515 11.004770771986417 4.717234018724795 0 0 0
393 1 1.573230201562535 11.004770705590836 4.718556001882881 0 0 0
45 1 6.284704675314632 9.432099355011973 0.001782184656304839 0 0 0
46 1 9.430689679203866 9.43034998032875 0.006561713175534558 0 0 0
47 1 12.58123898385057 9.430724697459846 0.0073780210195291745 0 0 0
48 1 15.727779357280495 9.431770382274221 0.0027728486424742813 0 0 0
350 1 20.440596140187658 11.004770991428051 1.5721078487605118 0 0 0
120 1 0.0023661437629927977 9.434044581226532 6.291629991532169 0 0 0
51 1 1.5672448699692787 1.5720339935279597 4.716284491846145 0 0 0
397 1 14.155644865813581 11.00476994333823 4.70625674069052 0 0 0
53 1 4.707817891627371 1.5694207400635511 4.712707501146902 0 0 0
119 1 18.869473286811147 6.289114096484285 6.289111291411589 0 0 0
55 1 7.855547888963939 1.5679815621358604 4.71071950566652 0 0 0
118 1 15.731550590902863 6.282434697848497 6.281257587913266 0 0 0
57 1 11.006587835187236 1.567781988912288 4.710304336282253 0 0 0
117 1 12.59213991571658 6.267249485567543 6.260444521791258 0 0 0
59 1 14.156217342326386 1.5685905004381024 4.711717759380754 0 0 0
116 1 9.427830157680901 6.26608764364611 6.2610311983718 0 0 0
61 1 17.300125048357415 1.5707111199439816 4.714819117871453 0 0 0
115 1 6.272176312664331 6.271634888489886 6.270436718697336 0 0 0
63 1 20.438512149687437 1.5724911522590705 4.717217295735096 0 0 0
64 1 22.008468087099075 3.1451072674963734 3.144602130695617 -1 0 0
65 1 1.568912419481455 4.717340944735221 4.716803370596519 0 0 0
66 1 3.1373079941357824 3.1427096766427107 3.1428227452723347 0 0 0
67 1 4.706494920265966 4.710619139938128 4.710219974381057 0 0 0
68 1 6.281215030426701 3.1396086293609424 3.14070236436485 0 0 0
69 1 7.853508882353605 4.7057547885737865 4.705075952170962 0 0 0
70 1 9.430843197640263 3.1381945793379646 3.139892621689509 0 0 0
71 1 11.00727707065044 4.704959511285363 4.703909889992109 0 0 0
72 1 12.581883024560405 3.1386084444330318 3.140090638371673 0 0 0
73 1 14.1596758590092 4.707139711405037 4.706033149033168 0 0 0
74 1 15.729614133429568 3.1405961034493393 3.141530357679081 0 0 0
75 1 17.300585481349415 4.714449644356547 4.714486258497999 0 0 0
76 1 18.870187587905686 3.144173611489998 3.1441445312167855 0 0 0
77 1 20.439573408023456 4.717561942041776 4.717385080232887 0 0 0
78 1 0.0005191866759417597 6.29006869976506 3.1450077479500496 0 0 0
79 1 1.5719241884726638 7.862223828955293 4.718168076155522 0 0 0
80 1 3.1404619746243654 6.288945579551085 3.14409282064672 0 0 0
81 1 4.7126870378305625 7.860157517916102 4.715244029194884 0 0 0
82 1 6.281615937661102 6.283915235520744 3.1392949532856353 0 0 0
83 1 7.854561171696224 7.853016200287261 4.701919990211059 0 0 0
84 1 9.43035774757758 6.2808182705690365 3.1363630766604476 0 0 0
85 1 11.00697845757628 7.851050509796566 4.69573009994806 0 0 0
86 1 12.582507053985456 6.281623523422071 3.1364786522546138 0 0 0
87 1 14.15739213275697 7.855257342462094 4.705315250985041 0 0 0
88 1 15.728985677765014 6.2854808186572315 3.1412518347033145 0 0 0
89 1 17.299294718615986 7.85986339856618 4.714490829565978 0 0 0
90 1 18.87014869996187 6.288851615038035 3.144230725443203 0 0 0
91 1 20.440225083385254 7.861923519159369 4.717822924539629 0 0 0
92 1 0.0015922371587144234 9.433457176140509 3.1452538019571183 0 0 0
93 1 3.142928309176242 9.433267158866137 3.1449946371365307 0 0 0
94 1 6.284705976851004 9.432100459666085 3.1424333928747306 0 0 0
95 1 9.430689664689636 9.430349927654248 3.137653039717864 0 0 0
96 1 12.581239527168895 9.430724105748448 3.1368349336440304 0 0 0
97 1 15.727779674336206 9.431769623974333 3.141442300143328 0 0 0
98 1 18.86986917564261 9.432957244211773 3.144358314758022 0 0 0
114 1 3.1406110220925294 6.289466892704213 6.28906205132427 0 0 0
113 1 0.0004062365859135541 6.290793511164039 6.290809171467687 0 0 0
112 1 18.868520126316884 3.144691998196885 6.289450921449814 0 0 0
111 1 15.730937170086163 3.1381087475584177 6.282728847157701 0 0 0
110 1 12.58392395683502 3.1329640641918317 6.277863662939183 0 0 0
109 1 9.430155102278103 3.131799179988022 6.277069858804269 0 0 0
348 1 14.155139340872001 11.004769889172332 1.572107045206663 0 0 0
106 1 22.00740661215036 3.1452744873487357 6.289672403038067 -1 0 0
107 1 3.136846290075561 3.1423759649128216 6.286560513827407 0 0 0
108 1 6.2777557843838725 3.133922964107631 6.279251274698562 0 0 0
347 1 11.005581794389574 11.00477003119893 1.5721059350104118 0 0 0
344 1 1.5722360405054072 11.004770606784385 1.5721082771664059 0 0 0
345 1 4.7135960681188545 11.004770254221286 1.572107119352762 0 0 0
346 1 7.857220103168056 11.0047704743609 1.5721076932037483 0 0 0
349 1 17.299082209563093 11.004770540576532 1.5721079600777705 0 0 0
127 1 1.5672828044467042 1.5721202918987893 7.8609624965787654 0 0 0
128 1 4.708445450773075 1.5691417110372148 7.857591931963424 0 0 0
129 1 7.854924440965376 1.5643673613827853 7.8537340461456004 0 0 0
130 1 11.007074652627074 1.5642511038558993 7.852927589114781 0 0 0
131 1 14.15581670653706 1.5671835974222252 7.856024188041684 0 0 0
132 1 17.29697014148105 1.5719807971377164 7.861055511981652 0 0 0
133 1 20.43691276256572 1.572896664065489 7.862178777099139 0 0 0
134 1 1.5679586388408215 4.7170011262008344 7.861225540582353 0 0 0
135 1 4.705880583789465 4.709145764364592 7.854546623479364 0 0 0
136 1 7.845292469595683 4.688331591841937 7.839361059639602 0 0 0
137 1 11.009603234712072 4.688917977922548 7.838199411925191 0 0 0
138 1 14.165254653304045 4.698325462858294 7.8437465067466 0 0 0
139 1 17.296820521448915 4.7169498242569565 7.86157754779243 0 0 0
140 1 20.437025973852354 4.7186979892110115 7.86290365192508 0 0 0
141 1 1.5744070016017553 7.863610537231453 7.864313744501115 0 0 0
142 1 4.717896218934893 7.8637563825480825 7.864072654294239 0 0 0
143 1 7.827907663094835 7.814405778120198 7.814472146402618 0 0 0
144 1 11.026950174200133 7.808866737349653 7.797481914610579 0 0 0
145 1 14.16469510222416 7.8458551603090525 7.839015234964107 0 0 0
146 1 17.297162641749797 7.86006597584816 7.859003206775301 0 0 0
147 1 20.438839204915727 7.862845463358757 7.863382534019387 0 0 0
687 3 10.21867880720289 11.00477086703301 12.5768822193512 0 0 0
149 1 1.5675616465785478 1.5722476912637802 11.005067567880754 0 0 0
245 1 18.855688422610747 9.434462573353123 12.576880895187422 0 0 0
151 1 4.709651175490101 1.569330712301763 11.0038812633121 0 0 0
244 1 15.6886194392657 9.436583776828279 12.57688027702885 0 0 0
153 1 7.856191569378039 1.564723666192553 11.002835189433611 0 0 0
243 1 12.35009014505437 9.491773961890472 12.57687930468485 0 0 0
155 1 11.00674257492322 1.5655408631521537 11.002460234881536 0 0 0
543 1 10.923641338145947 11.00476949347426 14.298677886061169 0 0 0
157 1 14.152726345100342 1.570320873186482 11.004210356636202 0 0 0
540 1 1.5817387499964108 11.004770628564088 14.14718974820932 0 0 0
159 1 17.29450319834737 1.5728825561104294 11.00537822530855 0 0 0
494 1 10.923634629714918 11.004769436316176 10.85508519431568 0 0 0
161 1 20.435838449618515 1.5731416267076535 11.0055675191726 0 0 0
162 1 22.006753575463055 3.1457126317193675 9.434034150901207 -1 0 0
163 1 1.5689454892020624 4.717346500889929 11.005528705170297 0 0 0
164 1 3.1381368173740456 3.1423802107088665 9.431975578913734 0 0 0
165 1 4.710255356816479 4.70913279441947 11.0032412819479 0 0 0
166 1 6.28003926513604 3.133203272501765 9.427369421608743 0 0 0
167 1 7.853452298506428 4.689068747657259 10.997644974073683 0 0 0
168 1 9.43045398164976 3.1236167702916973 9.42316102136557 0 0 0
169 1 11.006675019884439 4.694006241405197 10.991992891823196 0 0 0
170 1 12.582871000642713 3.129807866032636 9.425126314268251 0 0 0
171 1 14.15066351007075 4.713239841819889 11.003105233617966 0 0 0
172 1 15.724744359002184 3.1431324762444173 9.432267961821077 0 0 0
173 1 17.29122578413738 4.719388174961815 11.006323371393414 0 0 0
174 1 18.8655072868634 3.1460561582142974 9.434334470104837 0 0 0
175 1 20.435064185414735 4.719517972295319 11.006155278897564 0 0 0
176 1 22.008138578221995 6.291272033858909 9.434956851768307 -1 0 0
177 1 1.5748219228680498 7.863020874447864 11.006099885597148 0 0 0
178 1 3.140268292942701 6.286892025380949 9.432178769243018 0 0 0
179 1 4.719604797604552 7.85459993651776 11.001259724526507 0 0 0
180 1 6.272735145819767 6.266901799962827 9.417965501284499 0 0 0
181 1 7.846319724700496 7.793173530399322 10.966688856514114 0 0 0
182 1 9.410481503685785 6.225367768368463 9.380979609287369 0 0 0
183 1 11.017505761633107 7.683516394912569 10.88968935078575 0 0 0
184 1 12.60952187102757 6.242361625669439 9.386520399437355 0 0 0
185 1 14.109127006542794 7.881269996897953 11.017079171195242 0 0 0
186 1 15.719532661569913 6.291961886210907 9.435868184580588 0 0 0
187 1 17.27976306455509 7.865935071676441 11.007518217593878 0 0 0
188 1 18.86302365571424 6.292201111804543 9.435720907848802 0 0 0
189 1 20.434357461372336 7.863955773498193 11.006638181290251 0 0 0
190 1 0.003072328329224208 9.434527515509329 9.436067594036412 0 0 0
191 1 3.1576661057533526 9.435407767078466 9.438046477525738 0 0 0
192 1 6.328299850179621 9.4449674557107 9.453378355684094 0 0 0
193 1 9.419921252919503 9.317575314727502 9.255627177017342 0 0 0
194 1 12.591109177258822 9.394579820253709 9.365282746635687 0 0 0
195 1 15.717825222916444 9.429148919111915 9.426711652294083 0 0 0
196 1 18.86260875207246 9.433987177394528 9.435131043647445 0 0 0
242 1 9.51378650958999 9.282973709713788 12.576883723558396 0 0 0
198 1 1.567561109763145 1.5722473872393141 14.148694953469773 0 0 0
241 1 6.294379081025903 9.416832256853647 12.576879180308682 0 0 0
200 1 4.709651195535086 1.5693313252186283 14.149881720647183 0 0 0
240 1 3.156090669630272 9.434601149798256 12.576880854665117 0 0 0
202 1 7.856192004123094 1.5647242230423617 14.150927176649223 0 0 0
239 1 0.001936418477868032 9.434775689505258 12.57688139799477 0 0 0
204 1 11.006742020175695 1.565540496478163 14.151301318145237 0 0 0
238 1 20.434357565093066 7.863955774799793 14.147123771510854 0 0 0
206 1 14.152725976764158 1.5703211871007765 14.14955151707209 0 0 0
491 1 1.5817409025663935 11.004770667799994 11.006574768532683 0 0 0
208 1 17.294502641788522 1.5728830708883186 14.148385374706335 0 0 0
469 1 20.43907651508782 11.004769977644878 7.863825077792924 0 0 0
210 1 20.435838435135118 1.573141368063739 14.148195603978118 0 0 0
211 1 22.006503588925053 3.1458189226931528 12.57688094122609 -1 0 0
212 1 1.56894512810838 4.7173460044513185 14.148234296068198 0 0 0
213 1 3.138893480150461 3.1425769833428605 12.57688163390049 0 0 0
214 1 4.710255771527438 4.709134080312326 14.150522431611 0 0 0
215 1 6.281786088745619 3.1341454235646156 12.576881240458992 0 0 0
216 1 7.853451666141238 4.689068084210033 14.156116845596715 0 0 0
217 1 9.432430733692962 3.1289430604289743 12.57687953528221 0 0 0
218 1 11.006673843839918 4.6940014666889125 14.161768128433922 0 0 0
219 1 12.578958703474237 3.1379276424778393 12.576879986583242 0 0 0
220 1 14.150663341378177 4.713238936843198 14.150656308192223 0 0 0
221 1 15.721835233927791 3.1451227374058774 12.576880902822525 0 0 0
222 1 17.291224695112152 4.719389463346547 14.147439123209393 0 0 0
223 1 18.864199684021646 3.146443700844363 12.576881873961932 0 0 0
224 1 20.43506348040397 4.71951786537599 14.147607107855608 0 0 0
225 1 22.00790067081406 6.291714445052408 12.576881295138387 -1 0 0
226 1 1.5748225037137729 7.863021179505447 14.147664468185202 0 0 0
227 1 3.143809343801079 6.287909900805489 12.576882771892736 0 0 0
228 1 4.719605736614075 7.854601945892587 14.152502650802866 0 0 0
229 1 6.2828878417298935 6.270023941716348 12.576880821987217 0 0 0
230 1 7.846319595663382 7.793173543072102 14.187071212745597 0 0 0
231 1 9.425978919557474 6.2452060682276285 12.57688297561129 0 0 0
232 1 11.017508144381866 7.68352176969391 14.264074965482724 0 0 0
233 1 12.575229085277947 6.274793743944455 12.576882900004877 0 0 0
234 1 14.109129018437146 7.881269322258755 14.136680523246127 0 0 0
235 1 15.709355647863248 6.2953423678618075 12.57687966929915 0 0 0
236 1 17.279762348252703 7.865935357467524 14.146243277113674 0 0 0
237 1 18.85934680478788 6.293228932085195 12.576881214945269 0 0 0
466 1 11.011449963221924 11.004769942992107 7.817313488708038 0 0 0
468 1 17.29362212935828 11.004769578443211 7.860019680141739 0 0 0
463 1 1.5780823723827533 11.004771055177729 7.86534096756151 0 0 0
464 1 4.7280714687330265 11.004770671023591 7.867452004499642 0 0 0
465 1 7.862198564383388 11.00477002111447 7.8469060120372225 0 0 0
467 1 14.154542716973195 11.004770361631463 7.842133782223289 0 0 0
492 1 4.748810241930795 11.004770423292209 11.008692977861177 0 0 0
495 1 14.14305294661526 11.004771244255517 10.98894096376332 0 0 0
496 1 17.28133918543759 11.004769358071425 11.006711517391794 0 0 0
497 1 20.435492682126043 11.004769807903127 11.006886310187998 0 0 0
541 1 4.748806663007378 11.004770303676287 14.14506480456269 0 0 0
544 1 14.14305315777942 11.004771156720604 14.164819720407543 0 0 0
545 1 17.281336684386876 11.00476924274755 14.147050643443286 0 0 0
546 1 20.43549155180499 11.004769761941672 14.14687528522931 0 0 0
493 1 8.08735866533432 11.004770660190953 11.063895089426202 0 0 0
542 1 8.087357768738585 11.004770466267468 14.08986506572142 0 0 0
343 1 18.86848413797859 9.433417386334314 18.864304560165543 0 0 0
247 1 1.567282653463448 1.5721200148481562 17.292800893885616 0 0 0
342 1 15.727171976160284 9.431129287486614 18.87251730850003 0 0 0
249 1 4.708445431484223 1.5691423135035116 17.296170519618798 0 0 0
341 1 12.583975611436578 9.42553466618199 18.89258030620572 0 0 0
251 1 7.854924544037452 1.5643686223883333 17.300027491826516 0 0 0
340 1 9.430755015767282 9.41988348993737 18.88764718229795 0 0 0
253 1 11.007074039122466 1.564252359105951 17.300833552400626 0 0 0
643 1 17.298536019463327 11.004769889070198 20.439074030430987 0 0 0
255 1 14.1558155373409 1.5671839773932732 17.297737162603358 0 0 0
642 1 14.155642573267803 11.00476990481966 20.447504145571113 0 0 0
257 1 17.296968827379228 1.5719812860065971 17.292706789154103 0 0 0
595 1 20.439075472686294 11.004769892334128 17.289935866589058 0 0 0
259 1 20.43691211763092 1.5728966688181474 17.29158442654657 0 0 0
260 1 22.00675260171341 3.1457115716812836 15.719728328253872 -1 0 0
261 1 1.56795827514306 4.717000435387769 17.29253727310201 0 0 0
262 1 3.13813629994706 3.1423804192484224 15.721787291582006 0 0 0
263 1 4.705881877044538 4.709147909062081 17.299215641136396 0 0 0
264 1 6.280038827821877 3.13320468003723 15.726393592489584 0 0 0
265 1 7.845292535267859 4.688334616357113 17.314400362765404 0 0 0
266 1 9.430452957136888 3.123617887610181 15.730600883665621 0 0 0
267 1 11.00960114929285 4.688920099723764 17.315561874831825 0 0 0
268 1 12.582870393195302 3.1298081466273744 15.72863493111656 0 0 0
269 1 14.165253040634495 4.698326390828416 17.310014721037064 0 0 0
270 1 15.724743833747493 3.143133184874838 15.721494333231227 0 0 0
271 1 17.29681874637763 4.716951854229239 17.292184232731003 0 0 0
272 1 18.86550631313511 3.146057095094428 15.719428517676558 0 0 0
273 1 20.437024882955832 4.718698205464249 17.290858736130378 0 0 0
274 1 22.008138618963173 6.291271210192704 15.7188054785246 -1 0 0
275 1 1.574407654113017 7.863610278141216 17.28944952580924 0 0 0
276 1 3.140269421486143 6.2868928007336455 15.72158556313603 0 0 0
277 1 4.717899587848296 7.863760138825852 17.28968822027941 0 0 0
278 1 6.272737098362418 6.266904532540466 15.73579616891979 0 0 0
279 1 7.82790926283047 7.814410888599318 17.33928909319913 0 0 0
280 1 9.410482018543291 6.225370487117266 15.772781136536773 0 0 0
281 1 11.026946058486802 7.808869490334254 17.356281867708773 0 0 0
282 1 12.609519179486814 6.242360807980564 15.76724133069891 0 0 0
283 1 14.164692125866605 7.84585278748796 17.31474800348224 0 0 0
284 1 15.71953032791874 6.291962530796321 15.717893202829265 0 0 0
285 1 17.29715983890971 7.860067255529605 17.294759112129235 0 0 0
286 1 18.863022405662743 6.29220237900758 15.71804124427195 0 0 0
287 1 20.43883830178609 7.862845358816138 17.290379078064213 0 0 0
288 1 0.0030715397349761913 9.434527102559798 15.717696000641281 0 0 0
289 1 3.1576657428399955 9.435408528296998 15.715717004419618 0 0 0
290 1 6.328302377035276 9.444970465839711 15.700378402007129 0 0 0
291 1 9.419921419455974 9.317577680646853 15.89813077536861 0 0 0
292 1 12.591113320705974 9.39457598698156 15.788478415368457 0 0 0
293 1 15.717822808116605 9.429147803155757 15.727050754014597 0 0 0
294 1 18.862606717131282 9.433987662842272 15.718630186116815 0 0 0
339 1 6.28676628532965 9.430995485809214 18.868412414951116 0 0 0
296 1 1.567244733765138 1.5720344014634975 20.43747883709637 0 0 0
338 1 3.146205695149416 9.434213269274638 18.862262469217306 0 0 0
298 1 4.707818017063465 1.5694207358589676 20.44105531567706 0 0 0
337 1 0.0023661140061737584 9.43404415302975 18.862132732812526 0 0 0
300 1 7.855548304122504 1.5679812515526028 20.443042791359552 0 0 0
336 1 20.440224199746037 7.861923854497348 20.435939380987033 0 0 0
302 1 11.006588632041005 1.567782281386208 20.443457263745817 0 0 0
335 1 18.86947216223326 6.289115271132018 18.864650810968946 0 0 0
304 1 14.156216302477784 1.5685912457165394 20.442043487365808 0 0 0
334 1 17.29929376308655 7.859865389945934 20.439270758126614 0 0 0
306 1 17.30012345478964 1.5707108898054136 20.4389424877008 0 0 0
594 1 17.293618237832355 11.004769454082856 17.293741685135725 0 0 0
308 1 20.438510547395317 1.572491127653433 20.436545415479625 0 0 0
309 1 22.007405541053927 3.145274395451442 18.864091081808557 -1 0 0
310 1 1.5689124722216101 4.717341725478841 20.436959200464724 0 0 0
311 1 3.1368465755661474 3.142376955402409 18.867201873392116 0 0 0
312 1 4.706494742158478 4.710618630469682 20.443542474502387 0 0 0
313 1 6.277756310969083 3.1339238059758805 18.874510815110366 0 0 0
314 1 7.853508971903166 4.705753647052632 20.44868647948846 0 0 0
315 1 9.430154802167102 3.1318001910737974 18.876691527631703 0 0 0
316 1 11.007276966961165 4.704959933377138 20.449850899305726 0 0 0
317 1 12.583923174210174 3.132965827637016 18.875896492700484 0 0 0
318 1 14.159675587446255 4.707141457972688 20.44772699617373 0 0 0
319 1 15.730936153552502 3.138109255188017 18.87103248413162 0 0 0
320 1 17.30058498045836 4.714449901261295 20.439275503023683 0 0 0
321 1 18.86851835800449 3.144692840893169 18.864311096402908 0 0 0
322 1 20.43957225885884 4.717562237722609 20.436377904190525 0 0 0
323 1 0.00040555169857182173 6.290793110944067 18.86295320820465 0 0 0
324 1 1.5719243628252977 7.862223200855071 20.435594861950957 0 0 0
325 1 3.1406131025867596 6.289468412488635 18.864699381934717 0 0 0
326 1 4.712687379606056 7.86015671850431 20.43851809332773 0 0 0
327 1 6.272177258708 6.271636140679855 18.883324758734854 0 0 0
328 1 7.854561033180731 7.853016110164459 20.451842306777884 0 0 0
329 1 9.427827502339268 6.266089483695893 18.892731168260287 0 0 0
330 1 11.00697761898172 7.851050465397066 20.45803305333445 0 0 0
331 1 12.59213691892349 6.2672506644240515 18.893317240233856 0 0 0
332 1 14.157390457549763 7.855258948135715 20.448445809341454 0 0 0
333 1 15.731549576829265 6.282435918906488 18.87250472714393 0 0 0
592 1 11.01145067855521 11.004769798135431 17.33643940886731 0 0 0
589 1 1.5780829202725668 11.004770939199235 17.288423378262745 0 0 0
590 1 4.728075763913701 11.0047705969831 17.28630717899749 0 0 0
591 1 7.862200920959253 11.00476980737358 17.3068578734738 0 0 0
593 1 14.154539824231415 11.004770225076616 17.311626906731053 0 0 0
638 1 1.573229990029391 11.004770579063564 20.43520799125767 0 0 0
639 1 4.715593945418561 11.004770714846023 20.436528030668132 0 0 0
640 1 7.858470403524776 11.004771119059718 20.44372437244237 0 0 0
641 1 11.004998873061185 11.0047708942766 20.452704445395945 0 0 0
644 1 20.44047312905416 11.00477017405216 20.435831433771497 0 0 0
15 1 22.00846767157315 3.1451073986949316 22.009161266419444 -1 0 -1
29 1 0.0005184842019717237 6.2900682674492945 22.00875597847308 0 0 -1
41 1 18.870147910473307 6.288852032044057 22.00953154994175 0 0 -1
43 1 0.0015919414737892892 9.433456494972006 22.008509949777945 0 0 -1
44 1 3.1429277949819765 9.43326629856846 22.008767950656267 0 0 -1
49 1 18.869869022287947 9.432957787138248 22.009403729029152 0 0 -1
104 1 15.728166287948627 22.0095431714355 6.285802737930058 0 -1 0
103 1 12.581869309237138 22.009543357259165 6.282590994816592 0 -1 0
102 1 9.43101313916389 22.009543930607663 6.281867269490042 0 -1 0
462 1 18.8685193767696 18.86484844765458 6.289451205146586 0 0 0
461 1 15.730936869605685 18.871431230556567 6.282728280167585 0 0 0
101 1 6.28093912533922 22.009544299688287 6.283428254134403 0 -1 0
100 1 3.137284552304488 22.0095446329409 6.287206483373403 0 -1 0
105 1 18.868131974430092 22.009543760430496 6.289454318547576 0 -1 0
352 1 1.5714303790395636 14.147745151861916 1.5721083865322238 0 0 0
52 1 3.137178710545794 22.00954476350696 3.143166178453593 0 -1 0
354 1 4.712393443870052 14.149208599573226 1.5721078616269273 0 0 0
355 1 6.28470389248831 12.57744192945061 0.0017823764572737733 0 0 0
356 1 7.856449731655936 14.152161186930371 1.572106488178682 0 0 0
357 1 9.4306889402871 12.57919106946213 0.0065614358912898345 0 0 0
358 1 11.005860101381096 14.153142582542584 1.5721073315397511 0 0 0
359 1 12.581238638125878 12.578815554121604 0.0073782400011688665 0 0 0
360 1 14.155465518818813 14.151803998566107 1.5721068787313504 0 0 0
361 1 15.727778805961009 12.577769840482812 0.0027728202020754975 0 0 0
362 1 17.299378808489315 14.149475815294837 1.5721074069986465 0 0 0
3 1 3.137178370962741 22.00954470759106 0.001050095767894924 0 -1 0
364 1 20.440405938792214 14.147953313395297 1.5721079790676273 0 0 0
54 1 6.281955287385608 22.009544936802296 3.1419086312556037 0 -1 0
366 1 1.5692988781466115 17.2921971073296 1.5721084236932832 0 0 0
367 1 3.14046043146501 15.720596897524159 0.0001238455892625261 0 0 0
368 1 4.709265163683782 17.29584937997676 1.5721081790732963 0 0 0
369 1 6.281614209212516 15.725628515150218 0.004920428091596598 0 0 0
370 1 7.855562558849763 17.299060195762845 1.5721076370258047 0 0 0
371 1 9.430357486739762 15.728723990320338 0.00785192806587017 0 0 0
372 1 11.00641818477568 17.29978375962686 1.5721068762396762 0 0 0
373 1 12.582506956707885 15.727916360288557 0.007735638436859873 0 0 0
374 1 14.156491386827778 17.298222678069585 1.5721068275480912 0 0 0
375 1 15.728985366612246 15.724058681425038 0.0029623060198810014 0 0 0
376 1 17.3001459405188 17.294445223400842 1.572107457618322 0 0 0
50 1 22.007725718074504 22.009544445776335 3.144581490675917 -1 -1 0
378 1 20.43990059827086 17.29210751982381 1.5721083131864306 0 0 0
13 1 18.870041480664913 22.00954387699527 0.00012121468769425122 0 -1 0
380 1 1.567389590165066 20.43755834133298 1.5721085923625446 0 0 0
381 1 3.1373058538227663 18.86683320893562 0.0013943942386818568 0 0 0
382 1 4.7089804616918 20.43906456345441 1.5721082399132709 0 0 0
383 1 6.28121412324944 18.869934445167754 0.0035140360833100445 0 0 0
384 1 7.8561998762270004 20.440108646437793 1.5721074531125812 0 0 0
385 1 9.43084351346091 18.87134750097007 0.004322314371678946 0 0 0
386 1 11.006280896645563 20.440296259074042 1.572107469635775 0 0 0
387 1 12.581884024324776 18.870931492913034 0.004122701880906001 0 0 0
388 1 14.155476522295881 20.439743091006843 1.5721077660404612 0 0 0
389 1 15.729612930097938 18.868943682314118 0.00268391459267461 0 0 0
390 1 17.300253020995005 20.438485546448536 1.5721072555076632 0 0 0
391 1 18.870186239039555 18.865367346524216 7.108960259520182e-05 0 0 0
392 1 20.43925285343768 20.437070530683386 1.5721079670387446 0 0 0
99 1 22.007076906486013 22.009544398731265 6.289544193577113 -1 -1 0
62 1 18.87004218548231 22.00954393268666 3.1440940291723374 0 -1 0
60 1 15.728451539637081 22.009543503208633 3.142587728352699 0 -1 0
58 1 12.581230976696494 22.00954362745726 3.1415434123184283 0 -1 0
460 1 12.583921737668025 18.876576013957852 6.277863032280412 0 0 0
459 1 9.430154023112962 18.877741379931102 6.277069491928857 0 0 0
56 1 9.431149787350043 22.00954418355132 3.141355159314073 0 -1 0
400 1 0.0015915987134384236 12.576084298513582 3.1452535359990015 0 0 0
401 1 1.5719224773712317 14.14731777269634 4.718167877352277 0 0 0
402 1 3.1429278052168157 12.576274073923644 3.144994530856328 0 0 0
403 1 4.712685365523774 14.149384344447256 4.715243568411629 0 0 0
404 1 6.284705214092043 12.57744087686001 3.1424331332221453 0 0 0
405 1 7.854559402470708 14.156525849757676 4.701919915280195 0 0 0
406 1 9.430688917666684 12.57919112445994 3.137653155553185 0 0 0
407 1 11.006976915646009 14.158490689218633 4.695729777033522 0 0 0
408 1 12.581239211889987 12.578816197150637 3.1368346166317176 0 0 0
409 1 14.157391777321196 14.154283329653687 4.705314683724025 0 0 0
410 1 15.727779098598424 12.577770675971577 3.141442238201051 0 0 0
411 1 17.299294074774945 14.149676911853044 4.714490376600408 0 0 0
412 1 18.869868875717444 12.576583973809038 3.144358561468342 0 0 0
413 1 20.440223919256184 14.14761759982203 4.717822711764678 0 0 0
414 1 0.0005175336865930727 15.71947301404633 3.145007770607078 0 0 0
415 1 1.5689112917344807 17.292200920285413 4.716803238361857 0 0 0
416 1 3.140460696507292 15.7205965500591 3.1440925023578 0 0 0
417 1 4.706493296931832 17.298923454200168 4.710219195693123 0 0 0
418 1 6.281614401430777 15.72562734761542 3.1392942117060656 0 0 0
419 1 7.853507725438446 17.303787274022728 4.705075622654045 0 0 0
420 1 9.430357249031436 15.728723209042908 3.1363627611819984 0 0 0
421 1 11.007275832744723 17.304581514545774 4.703909864556878 0 0 0
422 1 12.582506219862692 15.7279167225558 3.1364786463337953 0 0 0
423 1 14.159675082899742 17.302400666564093 4.706032492258973 0 0 0
424 1 15.72898508556067 15.724059756978715 3.1412515555889526 0 0 0
425 1 17.300584938750838 17.295091287992104 4.714485997545303 0 0 0
426 1 18.870147493231507 15.720689196089415 3.144230430231295 0 0 0
427 1 20.439572153046996 17.291979759195392 4.717384763410732 0 0 0
428 1 22.008466781512958 18.86443447980875 3.1446017451762627 -1 0 0
429 1 1.5672443291488982 20.43750797186446 4.716284464230943 0 0 0
430 1 3.1373065828994586 18.866833016736056 3.1428223945241673 0 0 0
431 1 4.707817703297493 20.440121448707018 4.7127074730511636 0 0 0
432 1 6.281214239872895 18.869933651172158 3.1407022960865913 0 0 0
433 1 7.855547232952586 20.441560369557187 4.710719492510722 0 0 0
434 1 9.43084282467997 18.87134688702352 3.1398923861916974 0 0 0
435 1 11.00658718514753 20.441758806192315 4.710303991249584 0 0 0
436 1 12.581883145089138 18.870932366457158 3.1400907978985657 0 0 0
437 1 14.156216993249844 20.440949420256523 4.711717708970705 0 0 0
438 1 15.729613444120128 18.868944342301777 3.1415303321589483 0 0 0
439 1 17.300125061878223 20.438829267107977 4.714819111580979 0 0 0
440 1 18.87018694393245 18.865367713660934 3.1441443955964123 0 0 0