LAMMPS data file via write_data, version 2 Aug 2023, timestep = 45, units = metal

690 atoms
3 atom types

0 22.009546999999998 xlo xhi
0 22.009546999999998 ylo yhi
0 22.009546999999998 zlo zhi

Masses

1 183.84
2 1.008
3 4.0026

Atoms # atomic

1 1 21.809337662760495 21.56965210752086 21.722724221282167 -1 -1 -1
2 1 1.8868143902250165 1.909813837514781 1.9140914247972887 0 0 0
3 1 3.274560157055323 21.991118771186688 21.942722070137844 0 -1 -1
4 1 4.706619533405176 1.5985583685680906 1.595585241377581 0 0 0
5 1 6.294963624265449 0.002336372149181724 3.8104469507491716e-05 0 0 0
6 1 7.859873496256655 1.5751199411270924 1.5772005588762592 0 0 0
7 1 9.43428916202644 22.008231608481402 0.002007182649735281 0 -1 0
8 1 11.00528969527589 1.5697585848074258 1.5738766797402552 0 0 0
9 1 12.576962876949066 22.005632531177838 0.001360981715388242 0 -1 0
10 1 14.150021817706747 1.5672304877506529 1.5734673553183005 0 0 0
11 1 15.722686080293455 22.002448379884 0.00017992468844613076 0 -1 0
12 1 17.303545839541464 1.5662712874723375 1.582379440350442 0 0 0
13 1 18.870514606346745 21.977843193459673 21.98339987949601 0 -1 -1
14 1 20.17281347324125 1.5940443282221433 1.7399361638107687 0 0 0
15 1 0.009697894065950563 3.496335623758176 0.015855975518888808 0 0 0
16 1 1.6408217207200728 4.739279094834932 1.6415546603897868 0 0 0
17 1 3.169834476376444 3.1672357535433213 21.960203822818272 0 0 -1
18 1 4.744442115669585 4.737762739031572 1.5705837788143764 0 0 0
19 1 6.296790577101554 3.1453518717029865 0.001287223832309004 0 0 0
20 1 7.87049509955593 4.720071676361878 1.5760461652746507 0 0 0
21 1 9.436699000974546 3.142781573650493 0.0023439473048602073 0 0 0
22 1 11.007615015124044 4.715251444192235 1.5742236394871831 0 0 0
23 1 12.578529900574399 3.1403298834588047 0.0020417749279850474 0 0 0
24 1 14.145908211972563 4.714155067060527 1.5737029136497684 0 0 0
25 1 15.723402925208182 3.137424769296957 0.002730803970160754 0 0 0
26 1 17.27874606646079 4.7188180391532 1.574397335682394 0 0 0
27 1 18.872263199758038 3.154231406222231 21.991481411128227 0 0 -1
28 1 20.384785030256495 4.746197744552345 1.6193034407339482 0 0 0
29 1 0.007512201971313748 6.293287059712069 0.010818060082393187 0 0 0
30 1 1.580491958655666 7.866145002035654 1.5821428846843635 0 0 0
31 1 3.1550234177566128 6.297222757107252 0.0028748980974860005 0 0 0
32 1 4.726983721576935 7.87034348098621 1.5763308118662824 0 0 0
33 1 6.301678988667372 6.29657227350612 22.00892001934835 0 0 -1
34 1 7.869052130642218 7.86560871372373 1.5737869063490986 0 0 0
35 1 9.43845199410709 6.2890628498440515 0.0014131851464073023 0 0 0
36 1 11.00781910498349 7.860825742501917 1.5735831253913501 0 0 0
37 1 12.57738776965932 6.286551369430001 0.001307427058502691 0 0 0
38 1 14.147262924128691 7.859436776854246 1.573927576684525 0 0 0
39 1 15.716775614398378 6.287640610007539 0.0010335646187472171 0 0 0
40 1 17.28820917148758 7.86179602336935 1.5752249215225522 0 0 0
41 1 18.859409517394766 6.293792930903989 0.0019199622481849714 0 0 0
42 1 20.434831507920684 7.8661835861461995 1.5789298675194097 0 0 0
43 1 0.0018533570458847686 9.429973292810216 0.003564410259262066 0 0 0
44 1 1.573175348233246 11.003126840932987 1.5745455169598257 0 0 0
45 1 3.148242061169906 9.433812603493001 0.0026916169692695955 0 0 0
46 1 4.719761562909248 11.0062720470461 1.5740310281815402 0 0 0
47 1 6.293950315727102 9.435254369520173 0.0009305844988553249 0 0 0
48 1 7.864042805911722 11.005858551575942 1.5732340999947116 0 0 0
49 1 9.436150916171814 9.43277114655021 0.0005992119021632157 0 0 0
50 1 11.005737830365737 11.003514181083414 1.5731160313744532 0 0 0
51 1 12.577014662033344 9.430428654655136 0.0008467085876373901 0 0 0
52 1 14.147197702692079 11.001570956385027 1.5734151590173415 0 0 0
53 1 15.718668714531228 9.429609489747541 0.0011341433526534817 0 0 0
54 1 17.290281773449802 11.00100593275416 1.573944682887488 0 0 0
55 1 18.863046574334472 9.430455416221333 0.0020913946276962738 0 0 0
56 1 20.436394856050303 11.001449833896546 1.5742719783961683 0 0 0
57 1 22.008379201548188 12.568971094430243 0.00017145392725945288 -1 0 0
58 1 1.5705031970063419 14.141001215684406 1.571466929814983 0 0 0
59 1 3.1451874325400744 12.57211171242437 0.00032877343210179725 0 0 0
60 1 4.717545037409403 14.144395858176699 1.5722394985246122 0 0 0
61 1 6.290625971871963 12.574436858549113 0.0003138040865053847 0 0 0
62 1 7.8617578864000865 14.146349858360173 1.5726482183009634 0 0 0
63 1 9.433682274063957 12.574481007851816 0.0004000043756264829 0 0 0
64 1 11.003833305058913 14.14560227370053 1.5728321440678694 0 0 0
65 1 12.575349101554611 12.572613773559985 0.0005815411678917027 0 0 0
66 1 14.14528111946107 14.143034240199214 1.5732058614891586 0 0 0
67 1 15.71739235740696 12.569965696835784 0.0006667242640035245 0 0 0
68 1 17.288012855268256 14.139846092843808 1.5733109367242015 0 0 0
69 1 18.861908041942 12.56823433396876 0.00045302050017498096 0 0 0
70 1 20.43391716164431 14.139559357441456 1.5720467896391948 0 0 0
71 1 22.00341488439887 15.705413438139768 22.004199968229962 -1 0 -1
72 1 1.5662207847823921 17.27371979054583 1.5678195132077994 0 0 0
73 1 3.1453224735572873 15.709879146124909 22.0071479726143 0 0 -1
74 1 4.718410835326229 17.283041661756464 1.5712259125997374 0 0 0
75 1 6.290924859227575 15.714557072904453 22.009012824183877 0 0 -1
76 1 7.861976761286292 17.28851227721931 1.5726194836786827 0 0 0
77 1 9.432836677414523 15.716640130760874 0.00020679286444691763 0 0 0
78 1 11.003115104802108 17.288936534370823 1.572770042070338 0 0 0
79 1 12.573445079725602 15.715028257599403 0.0004300392560274061 0 0 0
80 1 14.143269168669876 17.285991714697232 1.5730015259471188 0 0 0
81 1 15.713505906143117 15.71011475285455 0.00039861253254478096 0 0 0
82 1 17.28215414046432 17.278664274701097 1.574712522760812 0 0 0
83 1 18.856475723484166 15.704619968241094 22.008531852604168 0 0 -1
84 1 20.429183728405146 17.277274130604617 1.5719856924531088 0 0 0
85 1 21.979466667003145 18.831508317821974 21.97472362449655 -1 0 -1
86 1 1.5643376247082605 20.314874107935857 1.5936534460184362 0 0 0
87 1 3.1571588691683203 18.846292746892658 22.00038750774327 0 0 -1
88 1 4.719861449053371 20.423549654319547 1.5737746136417192 0 0 0
89 1 6.29590004243739 18.857138605563065 22.00919640415499 0 0 -1
90 1 7.861677174737524 20.43498728129928 1.5722843949296914 0 0 0
91 1 9.434155536331179 18.860860400452747 0.0005868014843883126 0 0 0
92 1 11.003568321151942 20.434275329037227 1.5728294721357035 0 0 0
93 1 12.573435782394764 18.859603295423458 0.00036415512657746624 0 0 0
94 1 14.144761211397732 20.431675481648586 1.572485860110189 0 0 0
95 1 15.71147607395114 18.853918912606307 22.008668768562625 0 0 -1
96 1 17.283010763129653 20.4268354135404 1.5723138555361333 0 0 0
97 1 18.845499643530577 18.8377712087217 0.004466720489982153 0 0 0
98 1 20.40521859016312 20.41584241524437 1.6163417322190414 0 0 0
99 1 21.988013289596864 21.964687548810886 3.2755624396093403 -1 -1 0
100 1 1.595074741760859 1.601495179684608 4.716200620066028 0 0 0
101 1 3.1579602512232623 21.97066434359165 3.1626887195879965 0 -1 0
102 1 4.739189917420159 1.558132715998006 4.7416373410204935 0 0 0
103 1 6.289609207382658 22.00927833098473 3.1441812187930953 0 -1 0
104 1 7.8672509474614225 1.5713520818742353 4.722634865327439 0 0 0
105 1 9.43222830496861 22.008194899688228 3.145334521988376 0 -1 0
106 1 11.0046296473148 1.569833739764968 4.719544645301575 0 0 0
107 1 12.573720559417271 22.006311097399735 3.1457283712085102 0 -1 0
108 1 14.141656027708661 1.5684699843201995 4.722624161128541 0 0 0
109 1 15.70954184723406 22.00318605236269 3.1501795812473086 0 -1 0
110 1 17.274205471063148 1.5682179043647548 4.736142870508242 0 0 0
111 1 18.816760985634133 21.95785534949382 3.205774511690763 0 -1 0
112 1 20.410734523506463 1.5777063214554183 4.739863854896133 0 0 0
113 1 21.95516756834098 3.1782024302794456 3.169210120279056 -1 0 0
114 1 1.5705769891905028 4.737657839695024 4.745610777315371 0 0 0
115 1 3.324098189483681 3.2956419675211426 3.3217801399796487 0 0 0
116 1 4.788501790491865 4.789271809122315 4.790693391372881 0 0 0
117 1 6.304107005487245 3.159755293779642 3.164869013866898 0 0 0
118 1 7.882201691403168 4.725522654324094 4.729154894684336 0 0 0
119 1 9.437761781651247 3.144423201013829 3.148277550422922 0 0 0
120 1 11.009081694571634 4.716584483245112 4.720770252950083 0 0 0
121 1 12.57522581185265 3.1414001305355708 3.1467149356798885 0 0 0
122 1 14.142165223411068 4.7170258844878115 4.722842560854549 0 0 0
123 1 15.706164943309796 3.1427039131697048 3.152047886096943 0 0 0
124 1 17.26713859243944 4.735602461308477 4.743894604028057 0 0 0
125 1 18.79919242664012 3.1974719190570484 3.212119951347896 0 0 0
126 1 20.42324591239649 4.735357713972104 4.747287905602708 0 0 0
127 1 0.00033312741698047094 6.29955484737014 3.1568409956646604 0 0 0
128 1 1.5749474081010193 7.870673475498785 4.728751960554513 0 0 0
129 1 3.175351310899423 6.325346802773114 3.1769413577087566 0 0 0
130 1 4.733116897474652 7.8866484122802 4.734711370207291 0 0 0
131 1 6.308955613701946 6.305340095366785 3.1522288603704647 0 0 0
132 1 7.871908892385481 7.869604887428557 4.723723387939211 0 0 0
133 1 9.440969933931678 6.291986755719483 3.1476306529398315 0 0 0
134 1 11.008421555145146 7.862478618193447 4.719926971443656 0 0 0
135 1 12.577085531625437 6.288156713804131 3.1467990526854557 0 0 0
136 1 14.14616496396885 7.861712105670365 4.720670798316366 0 0 0
137 1 15.713421205619666 6.290591654664578 3.1493953559477212 0 0 0
138 1 17.284496179598026 7.8690443027033306 4.727352557233991 0 0 0
139 1 18.846657784208762 6.310595677350198 3.1654617877027182 0 0 0
140 1 20.435637352205223 7.867241209480247 4.726442809920361 0 0 0
141 1 0.0009477374380201337 9.434569502889037 3.149781739251116 0 0 0
142 1 1.5727482289007848 11.006333052381402 4.721152891817996 0 0 0
143 1 3.1497171741383396 9.442410964414774 3.1512219053640838 0 0 0
144 1 4.720331890490362 11.011425612362634 4.7215613259724485 0 0 0
145 1 6.295976265825359 9.440223238007396 3.1481003923949418 0 0 0
146 1 7.864619681233953 11.00832064397003 4.719553766201311 0 0 0
147 1 9.437077664061725 9.43506430590153 3.146484359236143 0 0 0
148 1 11.005986712000476 11.005033993621783 4.718403814575204 0 0 0
149 1 12.577087059616659 9.432143892707042 3.1461775633484654 0 0 0
150 1 14.147208381155425 11.003385593599036 4.718698703703282 0 0 0
151 1 15.718103279583163 9.432160388879621 3.1471394527649412 0 0 0
152 1 17.29016083942765 11.004129368438772 4.720126044924796 0 0 0
153 1 18.8620918636765 9.435850304639054 3.1494035688235438 0 0 0
154 1 20.43629688714844 11.003766711342054 4.72043249635119 0 0 0
155 1 22.008456639878688 12.572363326835896 3.1462089036204257 -1 0 0
156 1 1.571107453955867 14.143792225436453 4.718609081500874 0 0 0
157 1 3.1449566064025007 12.575794967249859 3.1461006498680413 0 0 0
158 1 4.717551515560497 14.146626012985458 4.718441347419049 0 0 0
159 1 6.290810163147823 12.577421184669447 3.145787733094873 0 0 0
160 1 7.861682491363547 14.148064483128014 4.71764319036431 0 0 0
161 1 9.433907571321956 12.576291769869107 3.1454301453209363 0 0 0
162 1 11.003963518085154 14.146926647060845 4.717412398264769 0 0 0
163 1 12.575617433903936 12.574218573593807 3.1455050036348706 0 0 0
164 1 14.14575915978997 14.144604652689361 4.718037211830491 0 0 0
165 1 15.717921091576105 12.572385302645234 3.1460428393342674 0 0 0
166 1 17.2891240547325 14.142124773077965 4.718967571715048 0 0 0
167 1 18.862688905697297 12.571923028986586 3.146193136665132 0 0 0
168 1 20.434586276623865 14.141427897528965 4.719224370369309 0 0 0
169 1 22.005250297431125 15.709094748566503 3.1457848679998492 -1 0 0
170 1 1.5701823304835267 17.280316566594742 4.720686299799383 0 0 0
171 1 3.1439301544881326 15.711493529030946 3.1450073996924246 0 0 0
172 1 4.7208325178509165 17.282970429261237 4.721740910505524 0 0 0
173 1 6.289589380561688 15.717096572097889 3.144894744772935 0 0 0
174 1 7.861658203190399 17.289833667225377 4.717504510038506 0 0 0
175 1 9.432444022942475 15.718277239266573 3.1449111408623573 0 0 0
176 1 11.002801862745258 17.290063131898737 4.717028600240033 0 0 0
177 1 12.573928825184556 15.716682024682873 3.145238620820008 0 0 0
178 1 14.143445169455903 17.287184161773197 4.7183002610947655 0 0 0
179 1 15.715146623542314 15.712891249806246 3.1464383393444684 0 0 0
180 1 17.282817791797626 17.278990312799607 4.723903668522077 0 0 0
181 1 18.85948416758754 15.70908005515817 3.1463868124709 0 0 0
182 1 20.429191747229865 17.27624610987636 4.725638938246604 0 0 0
183 1 21.99196993563289 18.839127112749285 3.160992183766665 -1 0 0
184 1 1.5810745856324433 20.412919902522507 4.735442705637914 0 0 0
185 1 3.1545426649389157 18.837539601041485 3.1573384384655174 0 0 0
186 1 4.725579671437875 20.42464823508318 4.726379385835553 0 0 0
187 1 6.291696931839262 18.859342161723422 3.145734675064222 0 0 0
188 1 7.8617164514351945 20.435283965048455 4.7173643835109615 0 0 0
189 1 9.432096220296366 18.862497294596686 3.144636170037553 0 0 0
190 1 11.002353746942118 20.434604791751397 4.717443220726944 0 0 0
191 1 12.57312824732092 18.86102882353634 3.1450343289343476 0 0 0
192 1 14.140688472623648 20.431390101061883 4.720364842075337 0 0 0
193 1 15.712437193724492 18.856648708084073 3.1465676528601825 0 0 0
194 1 17.269261405188065 20.415129063525114 4.738384210685697 0 0 0
195 1 18.846659785324192 18.839346740432394 3.1586325603188103 0 0 0
196 1 20.415628522325726 20.408061354241177 4.752545453810242 0 0 0
197 1 0.0011916646996706665 0.0002472076678720335 6.297258003239222 0 0 0
198 1 1.5762282210411913 1.574930263166859 7.863212978510872 0 0 0
199 1 3.144727001848573 22.00881132105127 6.29409356032246 0 -1 0
200 1 4.722011115940337 1.571297920563005 7.869932215958842 0 0 0
201 1 6.296034246499343 22.003247996228932 6.297211048870422 0 -1 0
202 1 7.865575091056378 1.5694796594794866 7.867003040636135 0 0 0
203 1 9.434131191219723 22.006629816736723 6.291623115737398 0 -1 0
204 1 11.00521057986363 1.5694771338106213 7.864463191042796 0 0 0
205 1 12.573228037876644 22.005830632664463 6.292039995368547 0 -1 0
206 1 14.144829915127914 1.5691706268024659 7.866012206597608 0 0 0
207 1 15.71192445930477 22.00364723862315 6.297650697562423 0 -1 0
208 1 17.286287621847755 1.5693487336583716 7.871600498010302 0 0 0
209 1 18.855294324028254 22.00266328164037 6.310100915152949 0 -1 0
210 1 20.43544848250962 1.5707300439750893 7.87070074838217 0 0 0
211 1 22.008398287973616 3.1462520989577363 6.298683929178002 -1 0 0
212 1 1.57456515002949 4.720199277912954 7.872551910450491 0 0 0
213 1 3.164330707031517 3.160640525663671 6.309048233328372 0 0 0
214 1 4.7281321958914715 4.725872103708637 7.884873941911041 0 0 0
215 1 6.304515265392144 3.146842947259153 6.306222055226266 0 0 0
216 1 7.8698829258474845 4.719210878472238 7.871640195989971 0 0 0
217 1 9.43868036580901 3.1435225821749744 6.295157203752816 0 0 0
218 1 11.007354726352094 4.71615662205381 7.8661093436152445 0 0 0
219 1 12.575144963761133 3.142559928305441 6.293548686494861 0 0 0
220 1 14.14576738366121 4.716135498764963 7.86706974094588 0 0 0
221 1 15.712138603685991 3.1439332994038405 6.299143966223762 0 0 0
222 1 17.28672562300942 4.718831818258109 7.873731904901098 0 0 0
223 1 18.853384677235372 3.1489817971357468 6.313173091812816 0 0 0
224 1 20.436468408518845 4.718181477963928 7.873171857258384 0 0 0
225 1 22.008168801195264 6.2975407300331625 6.303942930134686 -1 0 0
226 1 1.5727239177434909 7.865838881414945 7.871194689642564 0 0 0
227 1 3.1508931319033495 6.305654841218017 6.311102288123719 0 0 0
228 1 4.722481124159531 7.869559189799671 7.873929308894174 0 0 0
229 1 6.317826785434298 6.315891421634088 6.319588914496652 0 0 0
230 1 7.872276591137833 7.870745035357587 7.874072849112261 0 0 0
231 1 9.44328683347058 6.293802577797895 6.297343187786883 0 0 0
232 1 11.008433171976469 7.863142736989075 7.866575337883192 0 0 0
233 1 12.576633501110068 6.289763242777548 6.294066707545397 0 0 0
234 1 14.146268364771327 7.8624959146005144 7.867022085101037 0 0 0
235 1 15.711453962673394 6.294938973314462 6.300816133394598 0 0 0
236 1 17.289205350429526 7.8630159026660085 7.869090495819076 0 0 0
237 1 18.857419119770128 6.296694185770005 6.3047723297965454 0 0 0
238 1 20.435765400898827 7.8630917323109015 7.869321654534466 0 0 0
239 1 22.009308576906356 9.435854805186967 6.295867919043163 -1 0 0
240 1 1.5722480201591695 11.00564991539244 7.865710952794052 0 0 0
241 1 3.1469118465359633 9.44023134041133 6.297648445901442 0 0 0
242 1 4.718585172929098 11.007994825464705 7.866138538266672 0 0 0
243 1 6.29752248919627 9.44439220283352 6.298962817520285 0 0 0
244 1 7.8647450872017535 11.00890515137725 7.866053829330769 0 0 0
245 1 9.437793324802854 9.436703881955605 6.2934744799154085 0 0 0
246 1 11.005989064387126 11.00555208130548 7.863654091061643 0 0 0
247 1 12.57694572599577 9.43350113900878 6.2920174152573 0 0 0
248 1 14.147098293197184 11.004095405279632 7.863861283348516 0 0 0
249 1 15.717136665890147 9.43480190611355 6.294366836959066 0 0 0
250 1 17.291029541442768 11.003194189413126 7.86441113436467 0 0 0
251 1 18.862936459101626 9.43443249988278 6.294876720317211 0 0 0
252 1 20.43625298883433 11.003599075954789 7.864918266700499 0 0 0
253 1 22.00864086063723 12.574311480811156 6.291970130318714 -1 0 0
254 1 1.5717988690336822 14.145456667189956 7.863096942505514 0 0 0
255 1 3.1448694628029727 12.577001463788225 6.292073175009018 0 0 0
256 1 4.717178304451135 14.147227612702286 7.862965361886336 0 0 0
257 1 6.2910460700256 12.579011266009074 6.292043440976967 0 0 0
258 1 7.861887452011813 14.14804440767872 7.862731810835844 0 0 0
259 1 9.43405348453229 12.577392914793036 6.2905549186390575 0 0 0
260 1 11.004000472814466 14.147083468642599 7.861791916614783 0 0 0
261 1 12.575709997759352 12.575227966595884 6.290220517968668 0 0 0
262 1 14.145766437730382 14.144816379699094 7.862461471109064 0 0 0
263 1 15.718143196324393 12.57383615744923 6.291222288937368 0 0 0
264 1 17.289914261539 14.143186608056812 7.863229466728841 0 0 0
265 1 18.86302410484154 12.572954155898966 6.291721788415002 0 0 0
266 1 20.435698305611307 14.143811814529775 7.863237443010546 0 0 0
267 1 22.00772350759056 15.713401734307052 6.292245812339921 -1 0 0
268 1 1.5720618046936863 17.286822008716694 7.863896646815475 0 0 0
269 1 3.144540701557502 15.715682297654148 6.291150418132145 0 0 0
270 1 4.718124672825185 17.288131537737932 7.863760639669051 0 0 0
271 1 6.290464570782306 15.717388211282046 6.291125212480866 0 0 0
272 1 7.861586130089413 17.289594007671454 7.8622430109213575 0 0 0
273 1 9.43254883817236 15.71890404212936 6.2894660531243645 0 0 0
274 1 11.002720312014876 17.289772608974843 7.861513243251398 0 0 0
275 1 12.573957422286023 15.717348184583738 6.289691528774967 0 0 0
276 1 14.14339133957687 17.286815365108733 7.863520745331005 0 0 0
277 1 15.715299303305013 15.7133351756959 6.292146489133545 0 0 0
278 1 17.286914566170726 17.284070559076106 7.865972383243517 0 0 0
279 1 18.86027976598858 15.711329319817473 6.293357051047847 0 0 0
280 1 20.434731846328205 17.28526403301127 7.865407971013335 0 0 0
281 1 22.00778154013104 18.854368167826635 6.298932722183263 -1 0 0
282 1 1.5724616463847043 20.433169424735738 7.866156370191522 0 0 0
283 1 3.1482723203798186 18.85530522978714 6.296932042808166 0 0 0
284 1 4.717350769432501 20.434575851589184 7.86371658998462 0 0 0
285 1 6.292105147088807 18.859098481460453 6.292644891176045 0 0 0
286 1 7.862547717234576 20.4332509956432 7.8634922781319725 0 0 0
287 1 9.432051045123469 18.8624235696874 6.289399057937752 0 0 0
288 1 11.003300274375258 20.43385611421555 7.86245740720523 0 0 0
289 1 12.572195673060138 18.860751287162152 6.290538143477117 0 0 0
290 1 14.143836032999126 20.432380804656635 7.864391177956028 0 0 0
291 1 15.70994716802771 18.854096128190157 6.296984892534085 0 0 0
292 1 17.286272251352052 20.429932780364602 7.869826267888444 0 0 0
293 1 18.85395322214399 18.849938851336184 6.302852123041119 0 0 0
294 1 20.435551138375242 20.43142848151797 7.870869497597228 0 0 0
295 1 0.000980993997461787 22.007464756840143 9.43547374257019 0 -1 0
296 1 1.5729136118892622 1.5691623981160512 11.006841393515133 0 0 0
297 1 3.1449872334708973 22.007650982204172 9.434647970117487 0 -1 0
298 1 4.718567442649856 1.569508009576282 11.006873858823013 0 0 0
299 1 6.290871271859897 22.006369937476478 9.435837052943363 0 -1 0
300 1 7.863217710807248 1.5693381704455922 11.006992912774711 0 0 0
301 1 9.4337094238686 22.006265936608763 9.434942584167434 0 -1 0
302 1 11.005059843626238 1.5694002107002694 11.006491278833819 0 0 0
303 1 12.574815003840595 22.006074650129154 9.434995656297943 0 -1 0
304 1 14.146600692593793 1.569156644157809 11.006676655270569 0 0 0
305 1 15.716740974007529 22.00531636158646 9.436886440864331 0 -1 0
306 1 17.29035635420266 1.5687232202863268 11.007706416847316 0 0 0
307 1 18.86258602406021 22.005660561358376 9.439171882096337 0 -1 0
308 1 20.437394899894453 1.568520079333551 11.008016318104355 0 0 0
309 1 0.0010567982566531925 3.1427159273178087 9.438298756397533 0 0 0
310 1 1.5730748547564102 4.714844987506487 11.009681729197123 0 0 0
311 1 3.1473079910140354 3.1443782903469604 9.440618962842079 0 0 0
312 1 4.719362225466846 4.716049949260138 11.012100458500266 0 0 0
313 1 6.293928637280534 3.1434790624659312 9.440906985287482 0 0 0
314 1 7.864450059658427 4.715863983134817 11.009661408379307 0 0 0
315 1 9.435704729178077 3.1426647990863623 9.437366875103333 0 0 0
316 1 11.006105930080908 4.715048286905359 11.007940975088431 0 0 0
317 1 12.576078530722066 3.1423351783442794 9.436486278917558 0 0 0
318 1 14.147565904933876 4.714724725382777 11.008034253708043 0 0 0
319 1 15.717546916867029 3.1424662788397826 9.438616916553004 0 0 0
320 1 17.291445018316317 4.7143569225478466 11.00956786204821 0 0 0
321 1 18.86311471114393 3.1424334849690054 9.44145826971347 0 0 0
322 1 20.4376889664225 4.713831752820168 11.009712652677548 0 0 0
323 1 0.0003671571177817822 6.289305450919899 9.440662445991899 0 0 0
324 1 1.5725803622038246 7.860380992960009 11.010027827951541 0 0 0
325 1 3.146427543928257 6.291731449248621 9.443244150647269 0 0 0
326 1 4.718692755816022 7.861762680302642 11.010812501305791 0 0 0
327 1 6.2958997759942275 6.293582529313242 9.445753888699919 0 0 0
328 1 7.864781692431815 7.862515798033629 11.010930111385433 0 0 0
329 1 9.437272447812154 6.2898477148298815 9.439219623859472 0 0 0
330 1 11.006433376289193 7.860383804669564 11.008449428227271 0 0 0
331 1 12.57697547161114 6.288220884683941 9.437319097596854 0 0 0
332 1 14.147861475809396 7.859524209398028 11.008207265061735 0 0 0
333 1 15.71811081219377 6.28873237689324 9.439502380300821 0 0 0
334 1 17.291845715931665 7.8588549879648575 11.008599609993865 0 0 0
335 1 18.86375171885296 6.2882940680443795 9.44041081584868 0 0 0
336 1 20.436924995252948 7.858935860316548 11.00905780090231 0 0 0
337 1 22.009080706088174 9.432733114410183 9.438134360211496 -1 0 0
338 1 1.5722031233778004 11.002773809791197 11.007526274103038 0 0 0
339 1 3.1454996959270933 9.434674998910822 9.439073779145904 0 0 0
340 1 4.717509579388122 11.004198613822595 11.00782501984532 0 0 0
341 1 6.29222912892985 9.436325962808787 9.439736395871385 0 0 0
342 1 7.862432811043736 11.004983769438418 11.007837233660373 0 0 0
343 1 9.436906919100165 9.43577043501838 9.438757566322645 0 0 0
344 1 11.005449160335631 11.004045405752327 11.007170715778969 0 0 0
345 1 12.576975942325417 9.433030739569503 9.436682038864793 0 0 0
346 1 14.147604094846018 11.002331461215013 11.006475793080016 0 0 0
347 1 15.71910909601885 9.432055694962902 9.436983147183946 0 0 0
348 1 17.29171068647156 11.001338361228113 11.006528929990564 0 0 0
349 1 18.863870155878637 9.431620570946038 9.437313405362435 0 0 0
350 1 20.436561744070797 11.001546521618534 11.006981877890931 0 0 0
351 1 22.008898056319087 12.573897152579999 9.435136609452218 -1 0 0
352 1 1.5720502475688847 14.144405568294442 11.00506079144804 0 0 0
353 1 3.144693247988485 12.575500570715855 9.435405441494686 0 0 0
354 1 4.716935119749808 14.145803338497814 11.005287815354901 0 0 0
355 1 6.289817916076927 12.576778127387737 9.435478362722272 0 0 0
356 1 7.861190151377071 14.146426484672821 11.00532000085324 0 0 0
357 1 9.433878344983265 12.57675630520278 9.435105291314127 0 0 0
358 1 11.003871564598832 14.145911476547921 11.00507889835179 0 0 0
359 1 12.575581165276244 12.574792921513456 9.434299367990835 0 0 0
360 1 14.146037705718989 14.143906481049616 11.00435637775885 0 0 0
361 1 15.718825329986915 12.573223805984119 9.43446325368419 0 0 0
362 1 17.290690907466573 14.14296955115685 11.004394217676726 0 0 0
363 1 18.86368141404027 12.572933650845318 9.434740234801009 0 0 0
364 1 20.436198993900984 14.143248593836244 11.004717403262376 0 0 0
365 1 22.00872942792894 15.715469060391708 9.433951095999232 -1 0 0
366 1 1.572168947310914 17.287323438730606 11.004028664631052 0 0 0
367 1 3.1445038226821875 15.716958436260686 9.433787370590007 0 0 0
368 1 4.717081379774934 17.288660060705467 11.00393757704613 0 0 0
369 1 6.289328243682013 15.717963278702898 9.433818001266383 0 0 0
370 1 7.861006557700105 17.289386703161018 11.003867222673891 0 0 0
371 1 9.432505044398573 15.718286411055146 9.43340345615096 0 0 0
372 1 11.003300979991296 17.289234210894918 11.004287283571175 0 0 0
373 1 12.57404052246586 15.716924774394048 9.433418657473464 0 0 0
374 1 14.14508766035816 17.287509423146943 11.004050139059137 0 0 0
375 1 15.717001539750287 15.714760688281618 9.433860916983003 0 0 0
376 1 17.28938978656308 17.286020173324694 11.00334557631365 0 0 0
377 1 18.8627401410171 15.71454553067725 9.434081107386323 0 0 0
378 1 20.43595747535302 17.286278009743167 11.003755303679895 0 0 0
379 1 22.009177984518843 18.859352826175744 9.435467729700557 -1 0 0
380 1 1.5721906330510973 20.4329841852491 11.004573291012255 0 0 0
381 1 3.1447761696846728 18.860893723506056 9.434284508807986 0 0 0
382 1 4.717080799550376 20.43383451875058 11.003840777041177 0 0 0
383 1 6.289100604731705 18.8618652083505 9.433308037739287 0 0 0
384 1 7.861702459648952 20.43364294986701 11.004618308690059 0 0 0
385 1 9.432444573931816 18.861709470049618 9.43334885560953 0 0 0
386 1 11.003865585854378 20.433703679183736 11.004949667905096 0 0 0
387 1 12.573918216149302 18.861015902147948 9.433665142126518 0 0 0
388 1 14.145584830519706 20.432904402012838 11.005033436649336 0 0 0
389 1 15.716147005185782 18.858993975114974 9.435325136532416 0 0 0
390 1 17.289657864927804 20.432009921599747 11.005101862005178 0 0 0
391 1 18.86217437916362 18.85861837068772 9.436173801941727 0 0 0
392 1 20.43686496334743 20.432414052572046 11.005030373402006 0 0 0
393 1 0.0002336584348483471 22.00440980490166 12.57634397942912 0 -1 0
394 1 1.5719727578179876 1.5658043335069862 14.15047636644193 0 0 0
395 1 3.14491402693631 22.0053002623287 12.574807624529877 0 -1 0
396 1 4.720522809231228 1.5679039650473827 14.143801555940684 0 0 0
397 1 6.291011578240014 22.00552533462382 12.574854954888576 0 -1 0
398 1 7.86438924288882 1.568993718840201 14.146682714246355 0 0 0
399 1 9.43390488347327 22.00602664635968 12.576260737997261 0 -1 0
400 1 11.005441478199902 1.5691481033211427 14.148104119888641 0 0 0
401 1 12.575184593404623 22.00594449404922 12.576335381093832 0 -1 0
402 1 14.146109391321655 1.5687793777488583 14.147213639535146 0 0 0
403 1 15.717254129609918 22.005144842039332 12.57518957175939 0 -1 0
404 1 17.28891757326435 1.5677246010048602 14.144494554569471 0 0 0
405 1 18.863145223229793 22.004374820386136 12.574613081092643 0 -1 0
406 1 20.437327695736844 1.5657230575993488 14.14765284684295 0 0 0
407 1 0.0007849507249091246 3.1398042409231812 12.579229412308663 0 0 0
408 1 1.5728078011223003 4.713064338219119 14.147990108980064 0 0 0
409 1 3.145242044100323 3.1405449986122234 12.578215809630507 0 0 0
410 1 4.719715415947261 4.714580353606915 14.147089918801928 0 0 0
411 1 6.291854328527044 3.142082546940898 12.57768426654299 0 0 0
412 1 7.864736525285095 4.715314664391892 14.14842751693206 0 0 0
413 1 9.434896550835228 3.1421463375673935 12.577981143271739 0 0 0
414 1 11.006270527096211 4.714505145954076 14.149445454984956 0 0 0
415 1 12.576336435224071 3.1418980770126144 12.577862783357267 0 0 0
416 1 14.147474309227444 4.714070577914734 14.148956170545272 0 0 0
417 1 15.718706813989536 3.141534889623378 12.577547709357873 0 0 0
418 1 17.291259009036093 4.713186713497473 14.147826943946258 0 0 0
419 1 18.864516456947488 3.1401263748071955 12.578238676363052 0 0 0
420 1 20.43793694625921 4.711881800616204 14.148537239172407 0 0 0
421 1 0.00027806157799749987 6.2860762988538665 12.579347647332128 0 0 0
422 1 1.572920194773016 7.85829429229375 14.149595453994266 0 0 0
423 1 3.1455987213700536 6.287193969430858 12.579684739912148 0 0 0
424 1 4.71907038611818 7.8599977556459315 14.14905123968802 0 0 0
425 1 6.291878336008255 6.288413596578517 12.580066985997743 0 0 0
426 1 7.864385865634235 7.860732199575169 14.149445875457667 0 0 0
427 1 9.435331248869442 6.287750353631848 12.579282263410368 0 0 0
428 1 11.006168628831778 7.859082626809537 14.149963280114921 0 0 0
429 1 12.576924007040704 6.2868011773954775 12.578784650061575 0 0 0
430 1 14.147490307731358 7.8582696747083185 14.149227869383118 0 0 0
431 1 15.719611678228093 6.286325322794663 12.578722988241513 0 0 0
432 1 17.291389462210176 7.857598959562998 14.148572985258987 0 0 0
433 1 18.864763345476845 6.285438609553248 12.578954009413126 0 0 0
434 1 20.437000624800095 7.857138816874061 14.149403505602647 0 0 0
435 1 22.0093479963653 9.429766169301496 12.578951756737215 -1 0 0
436 1 1.5724197936466406 11.000366541871955 14.149011825095144 0 0 0
437 1 3.145165871270539 9.431127017280609 12.579278907322946 0 0 0
438 1 4.717660755100845 11.002001976772439 14.149204632347557 0 0 0
439 1 6.290620164102634 9.43239478542553 12.579311201958161 0 0 0
440 1 7.862400046617165 11.002895268633301 14.149236133721097 0 0 0