LAMMPS data file via write_data, version 2 Aug 2023, timestep = 35, units = metal

690 atoms
3 atom types

0 22.009546999999998 xlo xhi
0 22.009546999999998 ylo yhi
0 22.009546999999998 zlo zhi

Masses

1 183.84
2 1.008
3 4.0026

Atoms # atomic

1 1 22.009498185379456 22.00891387714142 22.00846127028287 -1 -1 -1
2 1 1.5705287060697406 1.5699927002426002 1.5695060153315368 0 0 0
3 1 3.1426358363935996 22.00870081270958 22.008687688898522 0 -1 -1
4 1 4.713911855128634 1.569267393324088 1.5694080841177314 0 0 0
5 1 6.28707860805947 22.00867504213367 22.00909972924036 0 -1 -1
6 1 7.859307968657547 1.5693326169122395 1.5698181173685937 0 0 0
7 1 9.432228201476862 22.008735979482676 22.009228451739443 0 -1 -1
8 1 11.004898364644255 1.5694902499993024 1.569793739823093 0 0 0
9 1 12.57757612786462 22.008924424511413 22.009099039113202 0 -1 -1
10 1 14.150394133819413 1.5697543028658865 1.569631253643476 0 0 0
11 1 15.722606140349233 22.009110501815936 22.00880910010405 0 -1 -1
12 1 17.295583459094612 1.5698199043175234 1.5691844527422112 0 0 0
13 1 18.86689576159772 22.00906653675493 22.008453334042017 0 -1 -1
14 1 20.438804573697798 1.570252636400733 1.5694204683070834 0 0 0
15 1 22.009410122792875 3.1430310724880943 22.007628251478433 -1 0 -1
16 1 1.5702488684415619 4.7143206227371195 1.5688319852832402 0 0 0
17 1 3.1416910887161116 3.1418356429126595 22.007167968780816 0 0 -1
18 1 4.711413909715667 4.711282170771136 1.56576906650349 0 0 0
19 1 6.286434027750147 3.1414364949289832 22.007608346241103 0 0 -1
20 1 7.8584430571372605 4.711519214273776 1.5666717152436618 0 0 0
21 1 9.431989398823001 3.1413846647433323 22.007832986215906 0 0 -1
22 1 11.004934131074844 4.711592491070212 1.5669034752441453 0 0 0
23 1 12.577687184099279 3.141611089028243 22.007703667752807 0 0 -1
24 1 14.151300785505322 4.712020731512912 1.566510804548731 0 0 0
25 1 15.723084789297804 3.141949569959561 22.0073192821662 0 0 -1
26 1 17.29806643198189 4.711933934744991 1.5656407692406038 0 0 0
27 1 18.867630496911808 3.142266226916612 22.006964106086524 0 0 -1
28 1 20.439164098893457 4.714576389691579 1.5687505237479555 0 0 0
29 1 3.426128660744481e-05 6.287800781902862 22.00749026505884 0 0 -1
30 1 1.5707930595396244 7.859690640485127 1.5692233080211586 0 0 0
31 1 3.142024866735773 6.2871042010647775 22.007019500558275 0 0 -1
32 1 4.712614621293964 7.858715382526809 1.5672086352043018 0 0 0
33 1 6.285477694541725 6.28553629806029 22.00523155073771 0 0 -1
34 1 7.857084748673847 7.856741555318956 1.5626437042443102 0 0 0
35 1 9.432067028980741 6.285667583130552 22.006215868560137 0 0 -1
36 1 11.005090187263972 7.857369016677223 1.565750369041625 0 0 0
37 1 12.57782663157571 6.285907162755217 22.00609000467761 0 0 -1
38 1 14.153024398312642 7.85724261559935 1.5625577875977466 0 0 0
39 1 15.724263219659331 6.286062619455539 22.004970435898706 0 0 -1
40 1 17.29739671574916 7.859256386699659 1.5669713822532616 0 0 0
41 1 18.867624542586963 6.287491891178807 22.006773799235454 0 0 -1
42 1 20.439178653367943 7.859915213256946 1.5690958482390558 0 0 0
43 1 0.0003206279831637536 9.432522280237315 22.007762052841095 0 0 -1
44 1 1.5712250183860192 11.004713833221743 1.5698218447602548 0 0 0
45 1 3.1424748942961385 9.432257068176304 22.00751718432353 0 0 -1
46 1 4.713244429729534 11.004731707705417 1.568456577807445 0 0 0
47 1 6.286019559418096 9.432008712072992 22.006620173769768 0 0 -1
48 1 7.8579420380812355 11.004373304843767 1.5672761329426337 0 0 0
49 1 9.432095698635978 9.43189567347923 22.00634954084973 0 0 -1
50 1 11.005270968369716 11.004537967196223 1.5673201798865215 0 0 0
51 1 12.57822145924107 9.432089714389312 22.006175827459227 0 0 -1
52 1 14.152638036459788 11.004783552661983 1.5668988199486453 0 0 0
53 1 15.724252777482914 9.432438089515962 22.006251424834982 0 0 -1
54 1 17.297309165282694 11.005207610526796 1.5680969042646842 0 0 0
55 1 18.867741965587246 9.432602975158774 22.00721812531273 0 0 -1
56 1 20.439323960227934 11.004922882234965 1.569654571969902 0 0 0
57 1 0.0005203353100215648 12.577101460413461 22.008335951990198 0 0 -1
58 1 1.571325018729288 14.149426861064677 1.5704623032938876 0 0 0
59 1 3.1427340841087563 12.577135418860246 22.00826404433864 0 0 -1
60 1 4.71346720622068 14.150143897971141 1.5692850083720467 0 0 0
61 1 6.28640413931171 12.577306891305005 22.007957507374012 0 0 -1
62 1 7.857912660575079 14.151522930974535 1.566892465146178 0 0 0
63 1 9.432095232091585 12.577530732581074 22.007974116443993 0 0 -1
64 1 11.005319201640457 14.151482681206945 1.5675125289930434 0 0 0
65 1 12.578462993361782 12.577728482307336 22.007798036073595 0 0 -1
66 1 14.152744395912585 14.151857467657985 1.5666348114014401 0 0 0
67 1 15.724191485993996 12.577739745856325 22.00754257671586 0 0 -1
68 1 17.29726214872272 14.150623941786952 1.5688902017679012 0 0 0
69 1 18.867860373410313 12.577472936465607 22.00794656222858 0 0 -1
70 1 20.439412207398817 14.14963185775267 1.570286278846562 0 0 0
71 1 0.0004849897304796955 15.721515624296968 22.008862122223913 0 0 -1
72 1 1.571036831964756 17.294025364612764 1.570563815253996 0 0 0
73 1 3.14265261738622 15.72186125525749 22.008843498372425 0 0 -1
74 1 4.713009101132412 17.295823981442393 1.5692310944009535 0 0 0
75 1 6.2861378659987235 15.72308337960527 22.00849050600566 0 0 -1
76 1 7.858895876993629 17.29592407765532 1.5697853102459454 0 0 0
77 1 9.43214576128073 15.72336840609679 22.008941278271887 0 0 -1
78 1 11.005218537143522 17.29590857201143 1.569957402701098 0 0 0
79 1 12.578354859387003 15.723542835686292 22.00878444394211 0 0 -1
80 1 14.151535709602214 17.296246337677704 1.5695215337894401 0 0 0
81 1 15.724372202783252 15.72347469827061 22.008162029273407 0 0 -1
82 1 17.29738642992313 17.29623138796282 1.5689445212271098 0 0 0
83 1 18.867888929217106 15.722199012003166 22.00855430264541 0 0 -1
84 1 20.43937566562519 17.294234634071152 1.5704327789416943 0 0 0
85 1 0.00024247995666899563 18.86572370126012 22.008930993879822 0 0 -1
86 1 1.5709889437332434 20.437385316448626 1.5705465713881874 0 0 0
87 1 3.142415585571698 18.86629984976515 22.009011347521618 0 0 -1
88 1 4.714456705313784 20.437661195769934 1.5706123263423943 0 0 0
89 1 6.286882818311235 18.86659397328106 22.009419055427717 0 0 -1
90 1 7.859565853456509 20.437663640841496 1.5709522139284604 0 0 0
91 1 9.432283814317081 18.866746301104573 0.00012617020070838003 0 0 0
92 1 11.005023318297878 20.43776719111325 1.5709297206418809 0 0 0
93 1 12.577876838930928 18.866915461677547 22.009528384563495 0 0 -1
94 1 14.150437534294111 20.438009764615394 1.5707268837294335 0 0 0
95 1 15.723244297288874 18.866987412778162 22.00910480886718 0 0 -1
96 1 17.29544179574898 20.438111358376677 1.5703406599168326 0 0 0
97 1 18.867649482503452 18.866620890988603 22.00877198400796 0 0 -1
98 1 20.438813723848227 20.437603807107166 1.570431478231417 0 0 0
99 1 22.009519634903878 22.008482343637766 3.1422746278285776 -1 -1 0
100 1 1.570295320011048 1.5695635849698255 4.713901028181773 0 0 0
101 1 3.1419518193856013 22.007863055294635 3.141773860296443 0 -1 0
102 1 4.712379992148895 1.5669773690296782 4.7125090268389265 0 0 0
103 1 6.286652373253379 22.007843665503685 3.1419842006259193 0 -1 0
104 1 7.8589550511864985 1.5672520945068542 4.713183536662323 0 0 0
105 1 9.432130326599651 22.007932408147227 3.1420368656491333 0 -1 0
106 1 11.004809113081869 1.5675972981651298 4.712863681937512 0 0 0
107 1 12.577710748907458 22.008168978292673 3.141937673237858 0 -1 0
108 1 14.15052865444757 1.5678572444372105 4.713063188410697 0 0 0
109 1 15.723048848372663 22.008397272481147 3.141774621280558 0 -1 0
110 1 17.296866236197744 1.5677507158829336 4.712369599954394 0 0 0
111 1 18.867582348677157 22.008327438166695 3.14161277895728 0 -1 0
112 1 20.438884707586958 1.569860900229337 4.713822768995163 0 0 0
113 1 22.009369987049613 3.141527211230386 3.140821655400794 -1 0 0
114 1 1.5685042801214344 4.712447170083985 4.712199126682123 0 0 0
115 1 3.1396037015884866 3.1391234592431303 3.1389869738550504 0 0 0
116 1 4.7046828848512705 4.704251271700159 4.7047422456032875 0 0 0
117 1 6.284575675532562 3.1377783299474067 3.138579051172944 0 0 0
118 1 7.854888134463883 4.703712482152981 4.705777679466766 0 0 0
119 1 9.431609621702266 3.138436864604304 3.1392504180011036 0 0 0
120 1 11.004851635748231 4.705469196024906 4.706828962228339 0 0 0
121 1 12.578102956659484 3.1387523464601452 3.1391897463854326 0 0 0
122 1 14.154606736730493 4.704515282188634 4.705772821007476 0 0 0
123 1 15.724898711245714 3.138508178539265 3.1384366776237638 0 0 0
124 1 17.304266144484703 4.705393580373052 4.70492404874946 0 0 0
125 1 18.869597655163886 3.139737603767882 3.1389408464262765 0 0 0
126 1 20.44059490701225 4.712821171696565 4.712171153797794 0 0 0
127 1 1.6727653836986856e-05 6.286948112760812 3.1409768490139918 0 0 0
128 1 1.569475133684437 7.859234130744988 4.713134664309388 0 0 0
129 1 3.1394007689836476 6.28515786738145 3.138965132361283 0 0 0
130 1 4.7067832933382645 7.856409377765842 4.7080695853613435 0 0 0
131 1 6.278588864612714 6.278124067307603 3.1297442733609016 0 0 0
132 1 7.841031980876577 7.840498155257861 4.684737636021976 0 0 0
133 1 9.43125827059537 6.280509179532114 3.1339004811302122 0 0 0
134 1 11.005008473958036 7.85081272323552 4.7018625748925125 0 0 0
135 1 12.578704678450848 6.280911651429099 3.133892414457851 0 0 0
136 1 14.168655084533457 7.841449703218537 4.685243099303417 0 0 0
137 1 15.731012783085651 6.278999009367019 3.1298412925877823 0 0 0
138 1 17.302868186631617 7.857203889162419 4.708012452914322 0 0 0
139 1 18.8701692669291 6.285710863789638 3.138864796899745 0 0 0
140 1 20.44030476264561 7.859546603540525 4.713046804819278 0 0 0
141 1 0.00036851134745449077 9.432232301698454 3.141374218056726 0 0 0
142 1 1.5702582057893628 11.0046276935347 4.713624807045341 0 0 0
143 1 3.140708190375633 9.431817833013193 3.1401392321468604 0 0 0
144 1 4.709222906311907 11.005334510127835 4.71005434409768 0 0 0
145 1 6.282172249876854 9.4313581817089 3.136132554132584 0 0 0
146 1 7.852491056972631 11.005558996385782 4.705336961638975 0 0 0
147 1 9.428896707803693 9.428285737184137 3.1324485641147315 0 0 0
148 1 11.00496452988709 11.002734007286543 4.701990469256704 0 0 0
149 1 12.58137794018115 9.428657757757547 3.1322945169866516 0 0 0
150 1 14.157980797536425 11.006329361952467 4.704738055877706 0 0 0
151 1 15.728078095218448 9.431970478783496 3.1359163723083774 0 0 0
152 1 17.301194650745277 11.005993486122962 4.709739509804736 0 0 0
153 1 18.86955856717891 9.432279767865783 3.1399263750243303 0 0 0
154 1 20.440280659767822 11.0049102398845 4.713474174277148 0 0 0
155 1 0.0006092677188349381 12.577160591675073 3.142038551029184 0 0 0
156 1 1.570377720586833 14.149457584564066 4.714555146792499 0 0 0
157 1 3.141226003901024 12.577464423883281 3.141091855221575 0 0 0
158 1 4.708276136530659 14.153069218809662 4.710614825909581 0 0 0
159 1 6.283274518837334 12.578337286061227 3.1380350498859766 0 0 0
160 1 7.845149126677805 14.164730069620155 4.697237741964209 0 0 0
161 1 9.429405868625498 12.579692066268073 3.1347227602799776 0 0 0
162 1 11.005257123589068 14.158029593354902 4.700781182621061 0 0 0
163 1 12.581136019008754 12.579895893247887 3.1345427103489154 0 0 0
164 1 14.165292193782356 14.16506495354497 4.697161231662538 0 0 0
165 1 15.727450258857825 12.578965752333312 3.1375668809423667 0 0 0
166 1 17.302457344869513 14.153726797373867 4.7101798535518755 0 0 0
167 1 18.869522808919907 12.577893040340198 3.140793570895795 0 0 0
168 1 20.44044688672773 14.149743964082631 4.714363119773391 0 0 0
169 1 0.0005646043396866069 15.72180508218673 3.142478549596025 0 0 0
170 1 1.570225794008644 17.29472921808444 4.7142262276004 0 0 0
171 1 3.140732311865454 15.723019215569243 3.141146931631968 0 0 0
172 1 4.709608453370032 17.2990973093152 4.710741826652174 0 0 0
173 1 6.281499418282428 15.727629940523773 3.1361571996443223 0 0 0
174 1 7.8562101338050025 17.30097924600247 4.710912249100215 0 0 0
175 1 9.43091587531951 15.726583152034594 3.137936832247486 0 0 0
176 1 11.00518870774852 17.29954116753467 4.711295378455141 0 0 0
177 1 12.579686736716006 15.726751715657864 3.1377808256946778 0 0 0
178 1 14.154151880781473 17.301376568042745 4.710636381594854 0 0 0
179 1 15.729050567786002 15.728048695817723 3.1359049940661086 0 0 0
180 1 17.300684276618416 17.299563260639413 4.710491924363694 0 0 0
181 1 18.869933699676636 15.723431979098214 3.140862078826461 0 0 0
182 1 20.440146809752783 17.294974076489993 4.714104327588528 0 0 0
183 1 0.0002918391999814907 18.86603249421737 3.142404226791437 0 0 0
184 1 1.5708738825410036 20.437362812071594 4.714655300599919 0 0 0
185 1 3.14141477480695 18.866968467158493 3.1415718618702955 0 0 0
186 1 4.713600998609639 20.43789712153576 4.71407821243354 0 0 0
187 1 6.285764601661373 18.868035449380066 3.1413929064319968 0 0 0
188 1 7.859243389786178 20.4383311069745 4.714433258688057 0 0 0
189 1 9.432030377521746 18.86773228417793 3.1418178695101346 0 0 0
190 1 11.004947730794497 20.43836881141066 4.714191581075505 0 0 0
191 1 12.578183632435557 18.86793279566979 3.141673753562958 0 0 0
192 1 14.1506061619072 20.438781162447217 4.714232960925074 0 0 0
193 1 15.724411120396217 18.8685014438376 3.1411091509217304 0 0 0
194 1 17.296172689117643 20.438447779010875 4.713847259385985 0 0 0
195 1 18.868710504039317 18.867354297553135 3.141371813404394 0 0 0
196 1 20.43885891978245 20.43761224577873 4.714544481129793 0 0 0
197 1 22.009400532608694 22.008559154011657 6.28703387527303 -1 -1 0
198 1 1.5701305261677372 1.5697667614917952 7.859475464028019 0 0 0
199 1 3.1416411845492047 22.0079568060534 6.286786502977078 0 -1 0
200 1 4.712126229772049 1.56764060701364 7.858979568712071 0 0 0
201 1 6.2859288272485605 22.0071392722244 6.286628617131992 0 -1 0
202 1 7.858167402909748 1.5661226244908106 7.859171979167657 0 0 0
203 1 9.432288311193506 22.00787494727845 6.287048719574892 0 -1 0
204 1 11.00449099859716 1.5695825700774504 7.859727757389315 0 0 0
205 1 12.577190978309378 22.008200357644657 6.286967469988956 0 -1 0
206 1 14.15079732325198 1.5668719810814111 7.85897043546417 0 0 0
207 1 15.723439896239137 22.00784519849521 6.286406393152398 0 -1 0
208 1 17.29671191467392 1.5684713785178162 7.858713262256448 0 0 0
209 1 18.86762757698722 22.00849144548928 6.286604287466342 0 -1 0
210 1 20.438684345827067 1.5701077719316427 7.859355795838981 0 0 0
211 1 22.009208097372532 3.1413877760593203 6.2862989105077345 -1 0 0
212 1 1.5687590241935332 4.712538211692718 7.858885388359439 0 0 0
213 1 3.1395653995489328 3.1391265794278205 6.285302829695679 0 0 0
214 1 4.70698873769354 4.706700695577172 7.856767225967514 0 0 0
215 1 6.28178009573068 3.132716302498215 6.282307494225919 0 0 0
216 1 7.85047007815929 4.694559328682509 7.852342293169434 0 0 0
217 1 9.432234398696172 3.135818994989915 6.284307363676102 0 0 0
218 1 11.004290884691706 4.712149817722223 7.85997966201788 0 0 0
219 1 12.576962889695812 3.136326477583902 6.284311366996332 0 0 0
220 1 14.158074379725932 4.695873414002802 7.85237950555364 0 0 0
221 1 15.727134326872095 3.133828301927952 6.282229743903606 0 0 0
222 1 17.301570330000484 4.707819546424729 7.856534766319706 0 0 0
223 1 18.869302121320406 3.139834467333596 6.285172122583385 0 0 0
224 1 20.43992292847714 4.712967366895298 7.858771882988526 0 0 0
225 1 22.0093574015275 6.2861699425721875 6.28595880621158 -1 0 0
226 1 1.568584765859246 7.858872161447644 7.859343374221588 0 0 0
227 1 3.134755358098943 6.282486357403667 6.282978393975732 0 0 0
228 1 4.698921826353667 7.852516165997929 7.854724876304948 0 0 0
229 1 6.259290388688197 6.258789468208598 6.259964378283346 0 0 0
230 1 7.789623876841655 7.786185995009218 7.782065211450265 0 0 0
231 1 9.428793414954342 6.265103059310067 6.2699340842795275 0 0 0
232 1 11.005990907465131 7.845156773558911 7.833679102880655 0 0 0
233 1 12.58091468320191 6.265752781542534 6.270000167557251 0 0 0
234 1 14.21712964495478 7.789309855441184 7.784912584147945 0 0 0
235 1 15.748977597728677 6.260746309489277 6.260804224498019 0 0 0
236 1 17.309890271926754 7.853680693577671 7.854547439858777 0 0 0
237 1 18.874239158445146 6.283293903482006 6.282921692980492 0 0 0
238 1 20.440721582103052 7.8592785021013025 7.859195860915317 0 0 0
239 1 0.0002608856497764477 9.432327904565323 6.2866243470010446 0 0 0
240 1 1.5716580590617972 11.004003146289774 7.860063641643373 0 0 0
241 1 3.1389103348276635 9.432291348073857 6.285257043373229 0 0 0
242 1 4.715554267016455 11.00431089692645 7.860662981910142 0 0 0
243 1 6.271447411049698 9.433231118883999 6.277402370687156 0 0 0
244 1 7.858248646902929 11.033818722334557 7.845706195789575 0 0 0
245 1 9.3822133917907 9.384245567839708 6.25254469185791 0 0 0
246 1 11.004117117186231 11.00311346829644 7.5170461591443 0 0 0
247 1 12.627648968459603 9.385616356903192 6.252180151746348 0 0 0
248 1 14.152642797373177 11.035464157917705 7.844538823488959 0 0 0
249 1 15.738247876745431 9.434055434934514 6.277389368151459 0 0 0
250 1 17.295035869171226 11.005421697955482 7.860050666807167 0 0 0
251 1 18.871065979898493 9.432904099952681 6.285016179686096 0 0 0
252 1 20.43873071699083 11.004380313088292 7.859862823523128 0 0 0
253 1 0.0005909919400254766 12.576553229406622 6.287435667914916 0 0 0
254 1 1.5697063616512088 14.149690659646744 7.8601601807870844 0 0 0
255 1 3.139816488127659 12.576670836185597 6.286757449246799 0 0 0
256 1 4.70395387229275 14.154757862936025 7.858317687206648 0 0 0
257 1 6.271793401052113 12.583594819808035 6.278316536888938 0 0 0
258 1 7.816973738015843 14.192243884944995 7.8290801416638764 0 0 0
259 1 9.392081613938435 12.622487724864754 6.257908321047887 0 0 0
260 1 11.005868238129528 14.1644386717613 7.822574874724274 0 0 0
261 1 12.617856325126368 12.62224068586916 6.257754110921152 0 0 0
262 1 14.192447012614531 14.192064310000863 7.829787778692632 0 0 0
263 1 15.738822937120293 12.584685345609223 6.277700297911284 0 0 0
264 1 17.306387951704057 14.155487143134833 7.857920139647034 0 0 0
265 1 18.870913663626126 12.577333725911577 6.286356182900477 0 0 0
266 1 20.440877973736097 14.150010013820301 7.8599755505475235 0 0 0
267 1 0.000500990896777122 15.722204076238913 6.28718776653809 0 0 0
268 1 1.5700190337189623 17.295273424280257 7.859695941909579 0 0 0
269 1 3.1383734474175258 15.724257434502396 6.285768793685207 0 0 0
270 1 4.709921217375938 17.29903099122227 7.858743234821462 0 0 0
271 1 6.272042823756 15.737433026061595 6.275220609897442 0 0 0
272 1 7.8557156989264705 17.304473381810627 7.859404535011954 0 0 0
273 1 9.426930188482746 15.738776720702571 6.278045031943032 0 0 0
274 1 11.005040047393848 17.29769566690261 7.860538436663975 0 0 0
275 1 12.583614651507727 15.739008328827317 6.27782114670618 0 0 0
276 1 14.154303787719476 17.30485092579423 7.859144026807326 0 0 0
277 1 15.738107498219803 15.737783476416281 6.275128700186855 0 0 0
278 1 17.300153178109337 17.299613796434862 7.858400973012685 0 0 0
279 1 18.872101840368128 15.72472549489998 6.285490089629129 0 0 0
280 1 20.440122528089212 17.295530111888084 7.859554410895205 0 0 0
281 1 0.00020716776323912898 18.866327670490268 6.287130161512022 0 0 0
282 1 1.5706090548435576 20.437707114728543 7.85982640306974 0 0 0
283 1 3.14120066162943 18.867162099099982 6.2867520844344496 0 0 0
284 1 4.712948258319034 20.438381394446303 7.859607125298385 0 0 0
285 1 6.284703943874789 18.870020941846313 6.286123946558115 0 0 0
286 1 7.8588386291285035 20.438886104847672 7.860180070720715 0 0 0
287 1 9.432176063919645 18.869937945373817 6.28662369649747 0 0 0
288 1 11.004756709453064 20.43830053080098 7.860409951736926 0 0 0
289 1 12.577804831373701 18.870186498612828 6.2864766515367005 0 0 0
290 1 14.150656246166607 20.439404044059543 7.85994410803649 0 0 0
291 1 15.725224891780424 18.870555417387823 6.285848615973778 0 0 0
292 1 17.29650008321572 20.43899657541947 7.85932923952471 0 0 0
293 1 18.868755292288707 18.86761613510339 6.286530811856321 0 0 0
294 1 20.438830467479562 20.43797064071567 7.8596975563628675 0 0 0
295 1 22.00923171284737 22.008920797359398 9.432465269951736 -1 -1 0
296 1 1.5700178850030755 1.57024681404288 11.005310673116593 0 0 0
297 1 3.1413486908380706 22.008466139184392 9.432586102092694 0 -1 0
298 1 4.712071375871149 1.5683781760235798 11.005750235374649 0 0 0
299 1 6.2850922463633285 22.007973567562768 9.43253907554012 0 -1 0
300 1 7.857826902308487 1.566910155693176 11.005108385889887 0 0 0
301 1 9.431826465256561 22.008585365482745 9.432550690070004 0 -1 0
302 1 11.004306876362042 1.5692652618210563 11.004817818474177 0 0 0
303 1 12.577231071893793 22.00890930567295 9.432421343450006 0 -1 0
304 1 14.150813105814713 1.5675845323944582 11.004805134431182 0 0 0
305 1 15.723875211210515 22.008696415808064 9.432202946170367 0 -1 0
306 1 17.29645002899842 1.5691693177603778 11.00532125722981 0 0 0
307 1 18.86757145791162 22.009013693702457 9.432314386070978 0 -1 0
308 1 20.43847368924188 1.5705842662417762 11.005117065182189 0 0 0
309 1 22.00901708482105 3.1416699336500384 9.432222843160712 -1 0 0
310 1 1.56890160804813 4.713063258402418 11.00534890486765 0 0 0
311 1 3.1396913033813942 3.1396863233541654 9.432254191161258 0 0 0
312 1 4.707972380619578 4.707751883219034 11.00671601230451 0 0 0
313 1 6.281597570131443 3.134941034921208 9.431811500527429 0 0 0
314 1 7.852780673917897 4.6975714702354585 11.006763839440058 0 0 0
315 1 9.430507368251249 3.1394054126501105 9.431510620534954 0 0 0
316 1 11.00394153500924 4.708277180514472 11.005197858325939 0 0 0
317 1 12.578003356029006 3.13972670467488 9.431391315441722 0 0 0
318 1 14.155436030384124 4.698603393312606 11.006293988832269 0 0 0
319 1 15.726861552021788 3.135965420855218 9.431461975619184 0 0 0
320 1 17.3002745314319 4.7087796731639315 11.006179522115941 0 0 0
321 1 18.868777411647173 3.140412834072622 9.431957388351531 0 0 0
322 1 20.439437558586096 4.713478827014417 11.005132061652429 0 0 0
323 1 22.009135198792013 6.286081420475246 9.432110798381574 -1 0 0
324 1 1.5694964767194062 7.859345844837623 11.004483367466275 0 0 0
325 1 3.136782800806656 6.282660525232141 9.432132240545627 0 0 0
326 1 4.704370296853328 7.8539238183673685 11.006966337491582 0 0 0
327 1 6.27075108904015 6.270681091107254 9.431143503181554 0 0 0
328 1 7.810725763582191 7.796540745525803 11.062835677650114 0 0 0
329 1 9.410003034565811 6.28609160822394 9.41970354282356 0 0 0
330 1 11.004255611164142 7.703647900948799 11.065350401685457 0 0 0
331 1 12.597608635491875 6.285760810749189 9.419953069240483 0 0 0
332 1 14.19600784867241 7.798886682289257 11.059970955861576 0 0 0
333 1 15.737507524562218 6.272044774559901 9.430779177905936 0 0 0
334 1 17.304147794455425 7.854977624034374 11.006350359351808 0 0 0
335 1 18.871801561763462 6.283535973765574 9.431819701847566 0 0 0
336 1 20.439448841932702 7.859748824366313 11.00427596415946 0 0 0
337 1 9.331790693223316e-05 9.432372109010045 9.432147989342166 0 0 0
338 1 1.572028585565208 11.004009903087663 11.004522728972075 0 0 0
339 1 3.1435325972873835 9.431389252253467 9.432086767283769 0 0 0
340 1 4.718251752522012 11.003836347643599 11.003224142912993 0 0 0
341 1 6.292532403418132 9.41960146216437 9.429633086378761 0 0 0
342 1 7.8694121928451946 11.030360266066479 11.015982629698131 0 0 0
343 1 9.145965599306185 9.210296901967086 9.38503124107894 0 0 0
344 1 11.006461933878478 11.139704412055616 11.42477214130015 0 0 0
345 1 12.862541970874405 9.223407600925498 9.386101937838573 0 0 0
346 1 14.141043205665802 11.031744505766563 11.016538192207271 0 0 0
347 1 15.717805205407343 9.421478047228462 9.429304988817037 0 0 0
348 1 17.292006458484273 11.004867526465937 11.003023808095946 0 0 0
349 1 18.866224217968103 9.43215280652337 9.43174520451165 0 0 0
350 1 20.43800913746766 11.004380483144999 11.004350103859757 0 0 0
351 1 0.0004473922000316458 12.576468390662331 9.432545381380152 0 0 0
352 1 1.5693066756908056 14.150062508301923 11.00530957629176 0 0 0
353 1 3.141442466209524 12.57701554323331 9.432881598451033 0 0 0
354 1 4.702622500329139 14.156162578443178 11.007816147809924 0 0 0
355 1 6.280101326463009 12.588685168596363 9.434187831400713 0 0 0
356 1 7.814550772664745 14.19666882067203 11.037439781889857 0 0 0
357 1 9.364256340249584 12.811338057934579 9.435297812705679 0 0 0
358 1 11.005683440361732 14.183948654902432 11.05045116178904 0 0 0
359 1 12.645616659118687 12.805382112067932 9.436054110956825 0 0 0
360 1 14.194921627963902 14.196768639070939 11.036392568564269 0 0 0
361 1 15.730494595580133 12.589473476214808 9.43384743993058 0 0 0
362 1 17.3075071127847 14.156907776915562 11.007434066413422 0 0 0
363 1 18.86901716023116 12.577711557879216 9.432555590464142 0 0 0
364 1 20.440980552056903 14.150380910547973 11.005137784189861 0 0 0
365 1 0.00036751404979938645 15.722885167139276 9.432626156342554 0 0 0
366 1 1.569748641212052 17.295717132853436 11.005812595025523 0 0 0
367 1 3.138003025992959 15.725353891567128 9.432775737983725 0 0 0
368 1 4.709280897620939 17.30005318240121 11.007216553793828 0 0 0
369 1 6.274237660016242 15.736216759733805 9.432892907496566 0 0 0
370 1 7.854729677652363 17.307103755270987 11.007229731257931 0 0 0
371 1 9.427695144168753 15.722247572631309 9.433556279133189 0 0 0
372 1 11.004924354187294 17.30352607896375 11.007088835294256 0 0 0
373 1 12.582439932780364 15.722670471954 9.433435851017203 0 0 0
374 1 14.155088461247681 17.307559315749526 11.006938342284533 0 0 0
375 1 15.735828048960117 15.736795425202061 9.432494478081878 0 0 0
376 1 17.30054091132646 17.300642046718608 11.006847727823429 0 0 0
377 1 18.872210235521333 15.7258550477073 9.432467631325077 0 0 0
378 1 20.440126559115015 17.295976769892267 11.005648536513357 0 0 0
379 1 5.853684906998926e-05 18.866785771581416 9.432630941923366 0 0 0
380 1 1.5704149393175522 20.43815836683314 11.005498905244101 0 0 0
381 1 3.1407648155363943 18.867774438427755 9.432784477081013 0 0 0
382 1 4.712612226194054 20.43913186699297 11.005987995188077 0 0 0
383 1 6.2833723161941455 18.87117662649239 9.432901805560752 0 0 0
384 1 7.858347204021443 20.440121818966674 11.00565039924771 0 0 0
385 1 9.431529268691943 18.86841284322686 9.433070965146435 0 0 0
386 1 11.004608170608869 20.43996442953798 11.005455234961667 0 0 0
387 1 12.578122177795011 18.868724744744902 9.43291953352345 0 0 0
388 1 14.150864628908188 20.440643578654992 11.005386434218563 0 0 0
389 1 15.726239505793698 18.87176015909091 9.432563165891402 0 0 0
390 1 17.29654338155649 20.439741397268907 11.005625566230465 0 0 0
391 1 18.86888439447491 18.86823727721051 9.432525674646744 0 0 0
392 1 20.438738399432115 20.43842598545946 11.005335963638323 0 0 0
393 1 22.00912492304279 22.00934788478731 12.577925480795294 -1 -1 0
394 1 1.5700153354695274 1.5707711651291736 14.150719984152941 0 0 0
395 1 3.1412936989527442 22.00899743307126 12.578466915962698 0 -1 0
396 1 4.71209713022635 1.5687886414137935 14.152170091942569 0 0 0
397 1 6.2853468321630555 22.008651638671967 12.57882556245778 0 -1 0
398 1 7.857408887438577 1.5673537567148625 14.152986537318954 0 0 0
399 1 9.43164466745683 22.008824245745732 12.57893116104315 0 -1 0
400 1 11.00438326904761 1.5675055356508236 14.153497249814784 0 0 0
401 1 12.577233122330814 22.00915135808438 12.578745095779672 0 -1 0
402 1 14.151267906199225 1.5679305241400614 14.152570885402914 0 0 0
403 1 15.723463705806054 22.009318737829272 12.578408121239697 0 -1 0
404 1 17.29642073944753 1.569501072264619 14.151637559353277 0 0 0
405 1 18.86743264340431 22.009513242005603 12.578115033378372 0 -1 0
406 1 20.43843222453957 1.571068209228894 14.150488447375421 0 0 0
407 1 22.008910108265017 3.1422959630016862 12.577887827805075 -1 0 0
408 1 1.5687024313246554 4.713962335742665 14.151139178332505 0 0 0
409 1 3.139768815103689 3.140407353352642 12.578822180257689 0 0 0
410 1 4.705578221110235 4.7070612098281615 14.157516958429143 0 0 0
411 1 6.282344672249398 3.1351045195207474 12.580728359062203 0 0 0
412 1 7.8492920621578985 4.7004230573898775 14.162550457686955 0 0 0
413 1 9.430550428301132 3.1327174931728026 12.581327162473235 0 0 0
414 1 11.004330621460054 4.702501919468079 14.160582293235644 0 0 0
415 1 12.577876440090197 3.1331842940994967 12.581008989832627 0 0 0
416 1 14.159257183444515 4.701103706077046 14.161961888892028 0 0 0
417 1 15.725986077003315 3.1360538937166718 12.580138321685512 0 0 0
418 1 17.30262552099593 4.70802740215607 14.156676227358572 0 0 0
419 1 18.868504582383842 3.141065078607062 12.578379957307769 0 0 0
420 1 20.43962169571466 4.714305444094084 14.150853567653158 0 0 0
421 1 22.00902871641784 6.287168878818725 12.577430691048216 -1 0 0
422 1 1.5701125065914547 7.860128470517691 14.149851114978096 0 0 0
423 1 3.1365536914569283 6.284228402638296 12.579665403319682 0 0 0
424 1 4.709886099414011 7.858480152225836 14.15313825440422 0 0 0
425 1 6.263933243170002 6.264741893684965 12.597479836349978 0 0 0
426 1 7.845796221512237 7.846102677640688 14.172231049618185 0 0 0
427 1 9.410989259641669 6.24859286556563 12.609320421545783 0 0 0
428 1 11.00442192290071 7.848155433760673 14.164824638752988 0 0 0
429 1 12.597538782555928 6.249133019335853 12.608897540759177 0 0 0
430 1 14.163229029709473 7.846606475502811 14.171425541654072 0 0 0
431 1 15.743866307067412 6.266305050307286 12.596099901274266 0 0 0
432 1 17.299022426205706 7.859143473266157 14.152462091327163 0 0 0
433 1 18.871803133229747 6.284971300614887 12.57913024429303 0 0 0
434 1 20.438858789885337 7.860418109325479 14.149608986717777 0 0 0
435 1 22.00948319986382 9.432580112459915 12.576953629052484 -1 0 0
436 1 1.5705092821938111 11.00453269431917 14.150287240239775 0 0 0
437 1 3.1415209405998774 9.43257775093164 12.577675395263451 0 0 0
438 1 4.710921019843035 11.004693898738763 14.153299386962308 0 0 0
439 1 6.280480261046355 9.433554399868303 12.58083821624688 0 0 0
440 1 7.855367458089551 11.004974362128657 14.15749825876164 0 0 0
441 1 9.402151674527639 9.387010405325658 12.593704835719883 0 0 0