LAMMPS data file via write_data, version 2 Aug 2023, timestep = 21, units = metal

688 atoms
3 atom types

0 22.009546999999998 xlo xhi
0 22.009546999999998 ylo yhi
0 22.009546999999998 zlo zhi

Masses

1 183.84
2 1.008
3 4.0026

Atoms # atomic

1 1 22.009210884748118 1.3180287067526293e-05 0.0003539854302308746 -1 0 0
2 1 1.571553010473775 1.5717648227352106 1.572109217776855 0 0 0
3 1 3.1434345341994994 2.350553477534832e-05 0.0005483668475793639 0 0 0
4 1 4.715684258090021 1.5717624336237392 1.57210942332635 0 0 0
5 1 6.287867343203589 4.485773906348563e-05 0.0005580713336086163 0 0 0
6 1 7.860205764004642 1.5717013787101235 1.5721093678306912 0 0 0
7 1 9.432538859016262 5.3692205271646727e-05 0.0005182856488092327 0 0 0
8 1 11.004887200013895 1.5716441908427636 1.5721091091473502 0 0 0
9 1 12.57723850751667 5.7705893787429746e-05 0.00046000906853747294 0 0 0
10 1 14.14954769074502 1.5716023071931808 1.572108863201218 0 0 0
11 1 15.721768394188663 5.517517091656268e-05 0.0003868699996445099 0 0 0
12 1 17.293982692382716 1.5716034340733849 1.5721087729786398 0 0 0
13 1 18.865892851036982 3.657507148920286e-05 0.00036220132156179264 0 0 0
14 1 20.43777838442274 1.5717766719529722 1.5721088537484733 0 0 0
15 1 22.0095335463369 3.1437521524719467 0.00042539863485225286 -1 0 0
16 1 1.5719813214140856 4.7160337263761845 1.5721089073229928 0 0 0
17 1 3.143271729615968 3.1434822862751415 0.0008154917937758591 0 0 0
18 1 4.715549521401931 4.715688183373943 1.5721091186924994 0 0 0
19 1 6.2877738262640985 3.1434301826408233 0.0007725586034361316 0 0 0
20 1 7.860103063120463 4.715442974860707 1.5721088560606618 0 0 0
21 1 9.432502171994466 3.1432843385211657 0.0007110742226353103 0 0 0
22 1 11.004908274923112 4.715204798983182 1.5721084294242225 0 0 0
23 1 12.577342429818845 3.1431729825747587 0.0006832435513188281 0 0 0
24 1 14.149880942871256 4.715044877320368 1.572107909665321 0 0 0
25 1 15.72212511138089 3.143079963376984 0.0006509625624885432 0 0 0
26 1 17.294721587803032 4.7150150224532625 1.572107662887509 0 0 0
27 1 18.86635689268998 3.143295969267551 0.0005017221294029906 0 0 0
28 1 20.438244809910458 4.715725604577664 1.5721084499593658 0 0 0
29 1 0.0005036806045414575 6.288067560408808 0.0003929470638732367 0 0 0
30 1 1.5723572732029807 7.860421019412778 1.5721084156927279 0 0 0
31 1 3.143882055558157 6.2882637124071055 0.0005380143963399444 0 0 0
32 1 4.716113624917937 7.860574848169171 1.5721086016364167 0 0 0
33 1 6.28771436344783 6.28775736742251 0.00128190421906791 0 0 0
34 1 7.86043567792916 7.860356368584959 1.5721082575503849 0 0 0
35 1 9.432449370711991 6.287288361329723 0.0012069853541020507 0 0 0
36 1 11.004938188963242 7.859832407526028 1.572107031209927 0 0 0
37 1 12.577591214232964 6.287051076521547 0.0013833849214932349 0 0 0
38 1 14.150388728024662 7.859522620735177 1.5721060303663914 0 0 0
39 1 15.723103432956908 6.286705991577297 0.0015255259860228415 0 0 0
40 1 17.295185959696955 7.859616023300215 1.5721068286498283 0 0 0
41 1 18.86689724168708 6.287485405364797 0.0006653025838609602 0 0 0
42 1 20.438619228506322 7.860121268656813 1.572107863835271 0 0 0
43 1 0.0007896544424637436 9.432515226671883 0.0003940519557220912 0 0 0
44 1 1.5724918266873444 11.004765496936573 1.5721081359039268 0 0 0
45 1 3.1441871641987 9.432628668580357 0.0003924231398013191 0 0 0
46 1 4.7162236660990775 11.004739185873522 1.572108372981834 0 0 0
47 1 6.288299040305977 9.432737962527572 0.0003908648687711372 0 0 0
48 1 7.860521133044629 11.00470432759011 1.572107726602412 0 0 0
49 1 9.432898275055129 9.43260890265344 0.0005960259636022227 0 0 0
50 1 11.005115013949712 11.004677862708474 1.5721061359955324 0 0 0
51 1 12.577933943691251 9.432244234194718 0.0018638086718494847 0 0 0
52 1 14.150864164305684 11.004691908301274 1.5721053186841423 0 0 0
53 1 15.723606661000867 9.431889016565936 0.0016822361401898018 0 0 0
54 1 17.295409677287807 11.004732600819882 1.5721064518285017 0 0 0
55 1 18.867234675301688 9.432256608036399 0.000753657551055948 0 0 0
56 1 20.438766165652535 11.004762628455437 1.5721075197884793 0 0 0
57 1 0.0007943277642719299 12.577017716751564 0.0003948529930782804 0 0 0
58 1 1.5723561934904886 14.149112016167225 1.572108311987251 0 0 0
59 1 3.1441825099755656 12.576885085484038 0.00039209919882833403 0 0 0
60 1 4.7160809221091355 14.148935556703478 1.5721084572657198 0 0 0
61 1 6.2882654220827 12.576715247229872 0.000428656416999494 0 0 0
62 1 7.860377412961612 14.149130974119895 1.5721079883074032 0 0 0
63 1 9.43288095875631 12.576796043367006 0.0007127109390557768 0 0 0
64 1 11.004923685842233 14.14967158566102 1.5721066239237294 0 0 0
65 1 12.577953327599628 12.577167986394416 0.0020378898998141197 0 0 0
66 1 14.150458653361026 14.149972435106678 1.5721055908347217 0 0 0
67 1 15.723643101174018 12.577539602483654 0.0017250505705340513 0 0 0
68 1 17.295228894736532 14.149877889605472 1.5721067232072692 0 0 0
69 1 18.867250325583434 12.577243678660185 0.0007582434568727046 0 0 0
70 1 20.43863281942021 14.149406083173282 1.5721077669786578 0 0 0
71 1 0.0005122121392235388 15.721466514520792 0.00039529131474903254 0 0 0
72 1 1.5719765763472358 17.293508216967894 1.572108783060874 0 0 0
73 1 3.143858879152427 15.721268506003684 0.0005371414689874229 0 0 0
74 1 4.715492875499904 17.29387614386171 1.5721089092977152 0 0 0
75 1 6.287626798211712 15.721792805078115 0.0013505531899318407 0 0 0
76 1 7.8600035361845295 17.294187221805025 1.5721085442632323 0 0 0
77 1 9.432361109033085 15.722344764411531 0.0014430459811992226 0 0 0
78 1 11.004900149958974 17.294443469665506 1.5721081117919746 0 0 0
79 1 12.577659551246938 15.722582285137175 0.0016271959486064355 0 0 0
80 1 14.149965875779241 17.29459759598479 1.5721076671435315 0 0 0
81 1 15.723220725629613 15.722877488921977 0.001654041194819734 0 0 0
82 1 17.294803433369097 17.294575077481007 1.5721074371103685 0 0 0
83 1 18.866941269856778 15.722044150631499 0.0006879831494512319 0 0 0
84 1 20.438267380915622 17.293820802371727 1.572108343446989 0 0 0
85 1 1.2481746622938772e-06 18.86580125995717 0.0004339721929044071 0 0 0
86 1 1.5715488569743805 20.437803148052573 1.5721091586192621 0 0 0
87 1 3.1432397524217346 18.86608798821099 0.0008243475578952685 0 0 0
88 1 4.715646839603926 20.43784768357763 1.5721093268091133 0 0 0
89 1 6.2876762827943224 18.86621658263582 0.000832774174794907 0 0 0
90 1 7.860172438115657 20.437933737763398 1.5721092630616107 0 0 0
91 1 9.432450715426928 18.866396146565613 0.0007993780430914588 0 0 0
92 1 11.00488299158885 20.438000266860698 1.5721090056055995 0 0 0
93 1 12.577379807538698 18.86651768953163 0.000779077149375916 0 0 0
94 1 14.149574895283862 20.438044390857428 1.5721087556643076 0 0 0
95 1 15.722223813224105 18.866594619352625 0.0007333983273955747 0 0 0
96 1 17.29402440736731 20.438027130822075 1.5721086967600022 0 0 0
97 1 18.866420846325596 18.866308683561975 0.0005348429483330902 0 0 0
98 1 20.437798309956694 20.437806174203335 1.5721088029727555 0 0 0
99 1 22.00921109850808 1.3225450678495494e-05 3.1438643888397486 -1 0 0
100 1 1.5710657005094202 1.5716077066246044 4.715382515942655 0 0 0
101 1 3.143434528894405 2.3572150718408068e-05 3.143670490972815 0 0 0
102 1 4.715272314996475 1.5714735082038942 4.715135765543911 0 0 0
103 1 6.287867147788422 4.496217835249941e-05 3.1436608577932525 0 0 0
104 1 7.860085337032029 1.571473817574413 4.7152337193198655 0 0 0
105 1 9.43253882857742 5.379469398702677e-05 3.1437003221246465 0 0 0
106 1 11.004947182033932 1.5714580285774902 4.715342416439374 0 0 0
107 1 12.5772387886922 5.780816800316637e-05 3.14375803631038 0 0 0
108 1 14.149678971935613 1.571406554022675 4.715503842635468 0 0 0
109 1 15.72176880615351 5.528457432777127e-05 3.143830903435682 0 0 0
110 1 17.2941496061585 1.5713604172783378 4.715585671471307 0 0 0
111 1 18.86589340479728 3.6656443818650826e-05 3.143855578806964 0 0 0
112 1 20.437461536868263 1.5716930564695177 4.715847831160634 0 0 0
113 1 22.00953393270176 3.143751842657598 3.1437925556568995 -1 0 0
114 1 1.5714773283656056 4.715718827766203 4.715346137548722 0 0 0
115 1 3.1432717768341742 3.143482200570469 3.143403142650211 0 0 0
116 1 4.714469978815025 4.7146690472343655 4.713892799513072 0 0 0
117 1 6.287773693664181 3.14343012746322 3.1434460659565473 0 0 0
118 1 7.859817392622219 4.714700667675871 4.714354191847868 0 0 0
119 1 9.432502101559374 3.143284073801103 3.143506897173869 0 0 0
120 1 11.005067427571847 4.714528350074289 4.7144103721913195 0 0 0
121 1 12.577342644906727 3.1431726825771036 3.1435341004488633 0 0 0
122 1 14.15043450763811 4.714245645027221 4.714318119091221 0 0 0
123 1 15.722125725450498 3.143079450279815 3.1435659471451713 0 0 0
124 1 17.29548553582319 4.714203571749397 4.7145571447037184 0 0 0
125 1 18.86635777873976 3.14329531129623 3.143715150588438 0 0 0
126 1 20.438267448293686 4.71546611583875 4.7155552633194695 0 0 0
127 1 0.00050414901238666 6.288067200936462 3.1438240045070507 0 0 0
128 1 1.5721457631432307 7.860349514111872 4.715618742411096 0 0 0
129 1 3.143882069910549 6.288263552669026 3.143679648682107 0 0 0
130 1 4.715775775147545 7.860522250428167 4.715279276802837 0 0 0
131 1 6.2877142241999024 6.287757295074001 3.1429356448678005 0 0 0
132 1 7.860100821319641 7.859746560144178 4.713647789925595 0 0 0
133 1 9.432449070558063 6.287287903828322 3.1430092261705305 0 0 0
134 1 11.005158877608093 7.858998235889903 4.713197345467225 0 0 0
135 1 12.577591651777528 6.2870503916188145 3.142831015301297 0 0 0
136 1 14.151948181487885 7.858255495063013 4.711846326382542 0 0 0
137 1 15.723105189684745 6.286704696631488 3.1426875344142795 0 0 0
138 1 17.296060060260533 7.8591237452552 4.714188967815312 0 0 0
139 1 18.866898430050963 6.2874847905669435 3.1435501802676513 0 0 0
140 1 20.438802966240683 7.859982463448077 4.715423734283866 0 0 0
141 1 0.0007901939224285098 9.432515060979332 3.1438219528871674 0 0 0
142 1 1.57235738439008 11.004765645997235 4.715654779818811 0 0 0
143 1 3.1441871486459143 9.432628636474012 3.1438243668846337 0 0 0
144 1 4.715963054508745 11.00472841377319 4.7154946267344675 0 0 0
145 1 6.288298793077726 9.432737848774956 3.143825504792624 0 0 0
146 1 7.860690982042323 11.00470345387646 4.716156942196619 0 0 0
147 1 9.432898286138997 9.432608613144478 3.143618254750486 0 0 0
148 1 11.005704036970183 11.004666864789064 4.715070400913334 0 0 0
149 1 12.577934952497538 9.432243703940983 3.142346739583101 0 0 0
150 1 14.152797614991597 11.00468199651485 4.711587340127146 0 0 0
151 1 15.723608542593231 9.431888542687513 3.142529142157485 0 0 0
152 1 17.29634983865639 11.004721064804388 4.714062363674141 0 0 0
153 1 18.867236041974333 9.432256458766183 3.143460587158655 0 0 0
154 1 20.439001746606365 11.004758772336018 4.715370205238467 0 0 0
155 1 0.0007948747911401039 12.577017944056191 3.1438210464299527 0 0 0
156 1 1.5721465653278504 14.149178701088914 4.71562310524295 0 0 0
157 1 3.1441824948557393 12.576885189799802 3.1438245542900085 0 0 0
158 1 4.71573697284271 14.148977227470933 4.715255802766217 0 0 0
159 1 6.288265161192853 12.57671543229649 3.1437874830125785 0 0 0
160 1 7.860012572921154 14.149767204307867 4.713352062294748 0 0 0
161 1 9.432880937936153 12.576796375937521 3.1435010960379826 0 0 0
162 1 11.005133549604455 14.150676303489927 4.712538994513004 0 0 0
163 1 12.577954333714136 12.577168555414437 3.1421718485256265 0 0 0
164 1 14.152119583105879 14.15132776887875 4.711415031813975 0 0 0
165 1 15.723645018476985 12.577540094971077 3.142486048411185 0 0 0
166 1 17.296135953134876 14.15035811886373 4.7141199501073405 0 0 0
167 1 18.86725171837509 12.577243900921292 3.1434558944959736 0 0 0
168 1 20.438827517241442 14.149532913368354 4.7154167628682595 0 0 0
169 1 0.0005126949160278115 15.721466931242865 3.143821449781519 0 0 0
170 1 1.5714759012926582 17.29380824812454 4.715353664904418 0 0 0
171 1 3.1438588726081274 15.721268745352951 3.1436802073429693 0 0 0
172 1 4.714375181244107 17.294913610551994 4.713844545019563 0 0 0
173 1 6.287626599729437 15.721793056785364 3.142866441444412 0 0 0
174 1 7.85960504417262 17.295070960470333 4.714040256083759 0 0 0
175 1 9.432360761304883 15.722345438042089 3.1427723344864336 0 0 0
176 1 11.005066310642892 17.29531956519685 4.714017410599558 0 0 0
177 1 12.577659999236964 15.72258318860131 3.142586353808517 0 0 0
178 1 14.15064377933097 17.295569388098635 4.713964485445587 0 0 0
179 1 15.72322267889258 15.722879077537234 3.142558261651671 0 0 0
180 1 17.29565692616543 17.29546567577749 4.7144052274740424 0 0 0
181 1 18.866942584845347 15.722044855452458 3.1435271922463315 0 0 0
182 1 20.438321462065627 17.29408625143225 4.71552364428743 0 0 0
183 1 1.6426902398336551e-06 18.86580165484532 3.14378380835101 0 0 0
184 1 1.571062644963047 20.43796198042267 4.71536822857108 0 0 0
185 1 3.143239756348429 18.866088205299494 3.1433940110982106 0 0 0
186 1 4.71522363609224 20.438167195489235 4.7151098362122426 0 0 0
187 1 6.287676088002666 18.866216854484737 3.143385407474028 0 0 0
188 1 7.860026289920852 20.438239436143327 4.715171215840707 0 0 0
189 1 9.432450657645159 18.866396609471337 3.1434181468947777 0 0 0
190 1 11.004940765995945 20.438288518268404 4.715270173672806 0 0 0
191 1 12.577380046250564 18.866518203959416 3.1434378378400387 0 0 0
192 1 14.149734672572277 20.43834144262941 4.71542685456605 0 0 0
193 1 15.722224490261599 18.866595404121462 3.143483122281724 0 0 0
194 1 17.294222343617115 20.43833702078097 4.715533154935732 0 0 0
195 1 18.866421810657116 18.866309507893472 3.1436817705402733 0 0 0
196 1 20.43749157776432 20.43789501369486 4.715828728107922 0 0 0
197 1 22.008755645006822 3.5034478348228437e-06 6.287837926934286 -1 0 0
198 1 1.5705354657683976 1.5714440537003793 7.859606150232663 0 0 0
199 1 3.142673957053091 3.2400773246977853e-06 6.287112636251347 0 0 0
200 1 4.714254378660522 1.5705217641052152 7.858784697767462 0 0 0
201 1 6.287472492829105 8.832182623660101e-05 6.287088980067447 0 0 0
202 1 7.859805732463172 1.5707292899953973 7.859117904887447 0 0 0
203 1 9.432504485010261 0.0001377710796645888 6.287234174397876 0 0 0
204 1 11.005029954035393 1.5709898647497305 7.859347255756641 0 0 0
205 1 12.577381769724608 0.00015685659861804454 6.287468193188815 0 0 0
206 1 14.14968911384914 1.5709950316999366 7.859887884422337 0 0 0
207 1 15.721917105757182 0.0001291605536878646 6.2877596555271005 0 0 0
208 1 17.293575974949707 1.5715785378125173 7.860337544125823 0 0 0
209 1 18.86549097759335 3.339419529476528e-05 6.288116616409795 0 0 0
210 1 20.436958191021144 1.5717139453901294 7.860169669141178 0 0 0
211 1 22.008734251226848 3.1434478828592556 6.287571668495653 -1 0 0
212 1 1.5697293045420349 4.714814215868094 7.858967593672946 0 0 0
213 1 3.1418798508384125 3.1424145330707223 6.28625550275438 0 0 0
214 1 4.710644490799453 4.711050080915407 7.855295779901969 0 0 0
215 1 6.286945162387359 3.1421565621961838 6.286272447229051 0 0 0
216 1 7.8584924944249295 4.7114915426471144 7.856906494216536 0 0 0
217 1 9.43241366845966 3.1423178908459097 6.28658788571871 0 0 0
218 1 11.005462375436705 4.712292894977739 7.857187007362432 0 0 0
219 1 12.577655284973105 3.1423065180901695 6.286794290633088 0 0 0
220 1 14.15251649336733 4.711003096891025 7.857002046607321 0 0 0
221 1 15.722873125039284 3.1419278454132433 6.286835695555727 0 0 0
222 1 17.294933323707895 4.714526526880841 7.859586936536698 0 0 0
223 1 18.86597766896993 3.1432297638155537 6.287800517135547 0 0 0
224 1 20.437363266540828 4.715447993484131 7.859941643021036 0 0 0
225 1 0.0001683527265372473 6.287849076427709 6.287579171377788 0 0 0
226 1 1.5712837516134732 7.860295962343623 7.85970371968938 0 0 0
227 1 3.142543235146527 6.287576119393821 6.286735374700197 0 0 0
228 1 4.713192994198219 7.859656552417419 7.8582758679460785 0 0 0
229 1 6.284636129911451 6.284626599550005 6.282761494094289 0 0 0
230 1 7.853226976097652 7.852054140831591 7.848617851872826 0 0 0
231 1 9.432165520661124 6.285081599573382 6.2844365002489875 0 0 0
232 1 11.006364284706438 7.854832930700592 7.85124770744256 0 0 0
233 1 12.578925335207586 6.284946411438133 6.283914556004786 0 0 0
234 1 14.163170605242113 7.847930409421679 7.846829398212261 0 0 0
235 1 15.726508584320104 6.283416610484644 6.283385821508021 0 0 0
236 1 17.298830903274848 7.857731169517105 7.8573858061578825 0 0 0
237 1 18.867730158354515 6.286816081381152 6.286872525426282 0 0 0
238 1 20.438967800017437 7.859816470636321 7.859594267892193 0 0 0
239 1 0.0007264906642246929 9.432443485206576 6.287537696826764 0 0 0
240 1 1.571827023003929 11.004768917824665 7.859596108136944 0 0 0
241 1 3.1435890714665637 9.432551567899484 6.287385223715379 0 0 0
242 1 4.714770168432806 11.00470813038723 7.858728883117759 0 0 0
243 1 6.287981495233455 9.433066808290517 6.287442406521973 0 0 0
244 1 7.862653421524893 11.004788432317122 7.862603827098812 0 0 0
245 1 9.43344895206964 9.431940766781526 6.2865261687347305 0 0 0
246 1 11.01040523052745 11.004875219827307 7.862249824286546 0 0 0
247 1 12.581261277230434 9.43084265684447 6.279817945496506 0 0 0
248 1 14.161388063516895 11.00487787699626 7.848797661700379 0 0 0
249 1 15.726642914346055 9.43077624427734 6.283360091940011 0 0 0
250 1 17.299236993855768 11.004717873334469 7.8568902630791735 0 0 0
251 1 18.868260756343997 9.431980206864603 6.286567736162155 0 0 0
252 1 20.43940537897959 11.00473882786791 7.859409676638959 0 0 0
253 1 0.0007396657964049203 12.577083277837684 6.2875434479087 0 0 0
254 1 1.571356203839696 14.149185444225337 7.859750191085947 0 0 0
255 1 3.1435949921831043 12.576957134423877 6.2873925363637015 0 0 0
256 1 4.713411445038576 14.149635007904838 7.858366225547986 0 0 0
257 1 6.287931083202015 12.576338017379888 6.287315607637181 0 0 0
258 1 7.8533895017481115 14.157428941675548 7.84768505687489 0 0 0
259 1 9.433513556693788 12.577560363008756 6.286015713896576 0 0 0
260 1 11.006301827516655 14.156102168341475 7.848882582781455 0 0 0
261 1 12.581313342259115 12.578814317121806 6.278923271505513 0 0 0
262 1 14.163859772537338 14.162300278310425 7.8454540495482314 0 0 0
263 1 15.726760675184009 12.578635533415705 6.283249505200252 0 0 0
264 1 17.298922134728564 14.151629206847803 7.857303517875923 0 0 0
265 1 18.868303376878394 12.577486646086319 6.286569453238114 0 0 0
266 1 20.43898635542706 14.14961996295406 7.859625626726098 0 0 0
267 1 0.00019794378673519054 15.7216564516211 6.287590107254521 0 0 0
268 1 1.5697891307360448 17.294730287561304 7.8589723749399445 0 0 0
269 1 3.1425566530406392 15.721897667096075 6.286783479153103 0 0 0
270 1 4.710518686045527 17.298527398660767 7.855255496716789 0 0 0
271 1 6.284492909349706 15.724968150133005 6.2825498809933755 0 0 0
272 1 7.857943492136165 17.298712198131295 7.856203353508749 0 0 0
273 1 9.431900165777167 15.72506643318922 6.283406674517216 0 0 0
274 1 11.005558698482162 17.298332004639946 7.856322740457866 0 0 0
275 1 12.579244672765185 15.725242512010377 6.282870118070329 0 0 0
276 1 14.153224676439105 17.29947856106678 7.8561951414731634 0 0 0
277 1 15.726914791279821 15.726422487029465 6.282896998890291 0 0 0
278 1 17.295273502627026 17.295258357950377 7.859380180216013 0 0 0
279 1 18.867838900350023 15.72271391870639 6.286794660868429 0 0 0
280 1 20.437543450705974 17.29419307605377 7.859845142894698 0 0 0
281 1 22.008785528822628 18.866129832878137 6.287543519757736 -1 0 0
282 1 1.5705571083602068 20.438080405353013 7.859632257468018 0 0 0
283 1 3.1418351657280983 18.867159415659486 6.286238545502242 0 0 0
284 1 4.714256310646196 20.439011311986054 7.858822520773138 0 0 0
285 1 6.286739997657398 18.86761524480823 6.286115654431479 0 0 0
286 1 7.859686466281612 20.439154391367207 7.859010771414574 0 0 0
287 1 9.432286874036249 18.867619739328802 6.286309132000253 0 0 0
288 1 11.005025554627311 20.439066021763388 7.8592179812425345 0 0 0
289 1 12.577784867166788 18.867688506115357 6.286484840382718 0 0 0
290 1 14.149817507633983 20.439008335222315 7.859752069964509 0 0 0
291 1 15.723145179541264 18.867976267914152 6.286593445550751 0 0 0
292 1 17.29362252539282 20.438088096103506 7.860335010012994 0 0 0
293 1 18.866104044839425 18.86641462126298 6.287732323281534 0 0 0
294 1 20.436981102464653 20.437858314995474 7.860178770876334 0 0 0
295 1 22.008388332329755 1.4821379354332224e-06 9.43224458493569 -1 0 0
296 1 1.570211370081327 1.5713624145487501 11.004386804999124 0 0 0
297 1 3.1422341293279223 22.009519515230117 9.431759615442626 0 -1 0
298 1 4.713763467743059 1.5703496950266072 11.00403343239435 0 0 0
299 1 6.286991748270009 22.009543659112428 9.431669845495799 0 -1 0
300 1 7.8594762656400485 1.5700802924198605 11.004428053564043 0 0 0
301 1 9.432469305807135 0.0001966257226942896 9.431923634109902 0 0 0
302 1 11.00450265406924 1.5716318636866524 11.00478238414953 0 0 0
303 1 12.576997995618779 0.00023532425007419627 9.432473605253834 0 0 0
304 1 14.149118586475673 1.5717280624805754 11.004864092328894 0 0 0
305 1 15.721340551608527 7.649879922137236e-05 9.43267675784501 0 0 0
306 1 17.293270213582534 1.5716942778703633 11.00473524309987 0 0 0
307 1 18.86511019672023 2.259392669000391e-05 9.432531207753257 0 0 0
308 1 20.436679689996478 1.5717137388104598 11.004628499795526 0 0 0
309 1 22.008216327859504 3.143329492536947 9.432101054703018 -1 0 0
310 1 1.5692216989506762 4.714540020392917 11.00413357046821 0 0 0
311 1 3.1413299075027417 3.142083652467798 9.431247908195076 0 0 0
312 1 4.710622543025106 4.711098437622439 11.002897235299443 0 0 0
313 1 6.285326712168531 3.1394267872983463 9.430272368006568 0 0 0
314 1 7.856055859502673 4.706449007849603 11.002887985485321 0 0 0
315 1 9.432355014620867 3.1408691656328274 9.431032673245616 0 0 0
316 1 11.003767912338352 4.71455780669528 11.004290549891637 0 0 0
317 1 12.577226013053904 3.141762582855101 9.431962755489858 0 0 0
318 1 14.149500981612931 4.714978152316205 11.005121183086416 0 0 0
319 1 15.721667940776321 3.1430917536196685 9.432565723356342 0 0 0
320 1 17.293969679755534 4.715071151958009 11.004593957336429 0 0 0
321 1 18.86534181918229 3.1434579509137857 9.432425407315142 0 0 0
322 1 20.436828787753424 4.715394356788711 11.004543668062032 0 0 0
323 1 22.008256761339776 6.287584559486857 9.432032501217973 -1 0 0
324 1 1.5691977973931013 7.859779896687884 11.004398897491871 0 0 0
325 1 3.1386933504793313 6.285450931569356 9.430050072019968 0 0 0
326 1 4.704682221533172 7.855330572128935 11.002009508567955 0 0 0
327 1 6.273406065870875 6.273560839296097 9.41918127969911 0 0 0
328 1 7.816052408861151 7.81908329741804 10.968820497128497 0 0 0
329 1 9.43153718481607 6.278175683873501 9.426741429211427 0 0 0
330 1 11.020516790674 7.853239401242118 10.981394218694197 0 0 0
331 1 12.583571638401997 6.277429466134526 9.425171832023633 0 0 0
332 1 14.15465081442639 7.857783477487566 11.006125789030623 0 0 0
333 1 15.724413661536653 6.28577567145365 9.43151645261994 0 0 0
334 1 17.29552681389474 7.8594016163805005 11.00503239394333 0 0 0
335 1 18.866395090840307 6.2874159174480875 9.43229893828253 0 0 0
336 1 20.437594711579266 7.8599941835435745 11.004672065593693 0 0 0
337 1 0.00037563294239540486 9.432536150093568 9.43214610278021 0 0 0
338 1 1.572186414019815 11.0047471623455 11.004496561051345 0 0 0
339 1 3.142648345933182 9.433100389149832 9.432021096724919 0 0 0
340 1 4.719263133755395 11.004562619559573 11.005493313629863 0 0 0
341 1 6.284023524965729 9.433970202114027 9.43136782849433 0 0 0
342 1 7.88282185936981 11.001533860220817 11.014194621187878 0 0 0
343 1 9.414798795737646 9.405716291270519 9.42454276087555 0 0 0
344 1 11.079671880589226 10.997338865036829 10.757364118546743 0 0 0
345 1 12.620183586567212 9.399148365836092 9.397223793354536 0 0 0
346 1 14.161521071488965 11.002699623644714 10.9948612827276 0 0 0
347 1 15.733468331677972 9.4292013272939 9.42710475711681 0 0 0
348 1 17.298157813836653 11.003943095888834 11.00381529838193 0 0 0
349 1 18.868962987310574 9.431877877365933 9.431476432089058 0 0 0
350 1 20.4389291223976 11.004587482106421 11.004549356803299 0 0 0
351 1 0.0004250890269946424 12.5769177450251 9.432180955634369 0 0 0
352 1 1.5695348407703225 14.14971118022811 11.004409355920524 0 0 0
353 1 3.142875772731342 12.576345396313062 9.432077091908608 0 0 0
354 1 4.705516832478052 14.153747230254124 11.001996652545895 0 0 0
355 1 6.284849529415033 12.574519187138613 9.431491335537459 0 0 0
356 1 7.8179397370396515 14.189766133009888 10.965183808310204 0 0 0
357 1 9.417016368643367 12.603844899694506 9.423395786912844 0 0 0
358 1 11.021083707405364 14.167294923101219 10.974109570004263 0 0 0
359 1 12.619614284127778 12.61281273707848 9.39394423546819 0 0 0
360 1 14.155202090041067 14.152169232671701 11.002706517752145 0 0 0
361 1 15.733180402793021 12.579693789705894 9.427634203359629 0 0 0
362 1 17.296903959694113 14.150783568568352 11.004098236243937 0 0 0
363 1 18.868895208231265 12.577290261315047 9.431666625752593 0 0 0
364 1 20.438095117115658 14.149632629602705 11.004529478234588 0 0 0
365 1 22.00846991937923 15.721998362557828 9.431981673112581 -1 0 0
366 1 1.5693933879563295 17.294938748295873 11.004176952436696 0 0 0
367 1 3.138874905344416 15.723964446504738 9.430117340184934 0 0 0
368 1 4.711011396668497 17.29807141177474 11.00307379625248 0 0 0
369 1 6.273364488062047 15.735983496696807 9.418816214956607 0 0 0
370 1 7.85663446748927 17.30249958459537 11.003069829258576 0 0 0
371 1 9.430781707285732 15.733798331484646 9.424016442727684 0 0 0
372 1 11.003817680961905 17.296825615863643 11.00410440103866 0 0 0
373 1 12.58505120368008 15.734886902015672 9.422553332233262 0 0 0
374 1 14.149273882071377 17.29439624671963 11.005354614097563 0 0 0
375 1 15.725149080410176 15.724305086382655 9.430820361485747 0 0 0
376 1 17.29389361917879 17.294437660353584 11.00471868481664 0 0 0
377 1 18.866864549940573 15.722379291330165 9.431977867971327 0 0 0
378 1 20.43690580996953 17.294170047328095 11.004554712982358 0 0 0
379 1 22.008270439433108 18.866217106315922 9.432130009623103 -1 0 0
380 1 1.5702403708889408 20.438156000039292 11.004401138066898 0 0 0
381 1 3.141425407550734 18.86736197878955 9.431340784653068 0 0 0
382 1 4.713813513351412 20.439062146321685 11.004073940325782 0 0 0
383 1 6.285424486282118 18.870016028774355 9.430398464326702 0 0 0
384 1 7.859477843717408 20.43943333701715 11.004462758280727 0 0 0
385 1 9.432168946642152 18.869448259632236 9.430695684951989 0 0 0
386 1 11.004489359315563 20.43841385346488 11.004831357664116 0 0 0
387 1 12.577459515042756 18.86868393357742 9.43163867088239 0 0 0
388 1 14.149151549664671 20.437989851176706 11.004892091673327 0 0 0
389 1 15.721704004877862 18.86661408781222 9.43260684557775 0 0 0
390 1 17.293276353293603 20.437900512984637 11.00476121550119 0 0 0
391 1 18.86537190182873 18.866138622693498 9.432461669556295 0 0 0
392 1 20.43669794298279 20.43785807419013 11.004636866849468 0 0 0
393 1 22.00825339021032 2.8028055338920847e-06 12.576884413104104 -1 0 0
394 1 1.5702113171690384 1.5713624889923479 14.149381364335035 0 0 0
395 1 3.1420330618926515 22.00951549109925 12.576883965121292 0 -1 0
396 1 4.713763538089222 1.570349579176154 14.149733655718766 0 0 0
397 1 6.286520633943119 22.009480495894643 12.576883251913186 0 -1 0
398 1 7.8594763428940055 1.570080332112743 14.149337828976279 0 0 0
399 1 9.432280145304503 8.069476847428632e-05 12.576882795995143 0 0 0
400 1 11.004502735192478 1.5716318694242046 14.14898292310925 0 0 0
401 1 12.576902310314418 0.00013837356805893928 12.576882686400351 0 0 0
402 1 14.149118005921919 1.5717284914562528 14.148901498970524 0 0 0
403 1 15.721217427112798 3.395647668217816e-05 12.576883364938242 0 0 0
404 1 17.293269565997527 1.5716944641933723 14.149031896218938 0 0 0
405 1 18.86497773268264 2.0911651945364746e-05 12.576884066730479 0 0 0
406 1 20.436679290640132 1.5717139114757244 14.14913971236772 0 0 0
407 1 22.008031207143212 3.143279535534932 12.576883990105435 -1 0 0
408 1 1.5692214447151664 4.714540202588878 14.14963336488937 0 0 0
409 1 3.1410627854658997 3.1419700930524237 12.576883599375332 0 0 0
410 1 4.710622561577422 4.711098349462272 14.150869339846869 0 0 0
411 1 6.2844627137704485 3.1392068978264027 12.576883178130641 0 0 0
412 1 7.856056579779779 4.706450468493932 14.150876809105418 0 0 0
413 1 9.43178342510505 3.143010351279441 12.576882592228188 0 0 0
414 1 11.00376739162853 4.714558747217372 14.149472516729704 0 0 0
415 1 12.57666217843899 3.144005217016097 12.576882249776347 0 0 0
416 1 14.149498939896946 4.71498060134557 14.1486423863018 0 0 0
417 1 15.721486660474515 3.1432527276870124 12.576883082482766 0 0 0
418 1 17.29396862649035 4.715071857987299 14.1491721598638 0 0 0
419 1 18.865130847370327 3.143495532230552 12.576883651759678 0 0 0
420 1 20.436828205139086 4.7153947969072885 14.149223321792304 0 0 0
421 1 22.007829010490642 6.2873646135541055 12.576883209240352 -1 0 0
422 1 1.5691975210772 7.859779995426704 14.149366707256474 0 0 0
423 1 3.1382975062289553 6.2849027472650185 12.576883190677218 0 0 0
424 1 4.7046848426178185 7.855331137354429 14.151756195135537 0 0 0
425 1 6.275620728921287 6.275909601952879 12.576883377325283 0 0 0
426 1 7.81606922873422 7.819096180726899 14.184926072441964 0 0 0
427 1 9.426383566779915 6.29053604954327 12.576877754840291 0 0 0
428 1 11.020503329682052 7.853251248359015 14.172335962737165 0 0 0
429 1 12.575040038135969 6.28973612159837 12.576878050547718 0 0 0
430 1 14.154636714491534 7.857793182910165 14.147628477213283 0 0 0
431 1 15.723186440678337 6.286027458846764 12.576882477769493 0 0 0
432 1 17.295522066099437 7.859403475168962 14.148730709085678 0 0 0
433 1 18.865946766305317 6.287287417281536 12.57688312766971 0 0 0
434 1 20.437593028330344 7.859994704771562 14.14909322113551 0 0 0
435 1 22.009222026856406 9.43258757837467 12.576882648278405 -1 0 0
436 1 1.572187120883306 11.004747142714356 14.149268299019882 0 0 0
437 1 3.1418272136448135 9.432630221404013 12.576883206175076 0 0 0