LAMMPS data file via write_data, version 2 Aug 2023, timestep = 32, units = metal

691 atoms
3 atom types

0 22.009546999999998 xlo xhi
0 22.009546999999998 ylo yhi
0 22.009546999999998 zlo zhi

Masses

1 183.84
2 1.008
3 4.0026

Atoms # atomic

1 1 22.00954460555075 4.7248467173608696e-05 22.008102950329253 -1 0 -1
2 1 1.5706109428742894 1.5707427528714877 1.5694220969238681 0 0 0
3 1 3.1427226016838103 22.009386159859538 22.008415047922437 0 -1 -1
4 1 4.7142208679931255 1.5701567757488855 1.5697510744623557 0 0 0
5 1 6.2872156671340145 22.009148052831755 22.009173782444133 0 -1 -1
6 1 7.859493919727 1.5702084958907552 1.5705505573281036 0 0 0
7 1 9.43222640955639 22.00904849905486 1.9579017795479103e-05 0 -1 0
8 1 11.004801476064554 1.570237814222196 1.570792222343696 0 0 0
9 1 12.57740863697293 22.009087041914665 1.67426824617678e-05 0 -1 0
10 1 14.150087029387656 1.5702894915927663 1.5705576747369367 0 0 0
11 1 15.722387755747718 22.009233728490084 22.009169879601505 0 -1 -1
12 1 17.295316418653833 1.5702608214967009 1.5697628057676674 0 0 0
13 1 18.86683758800404 22.009457145874883 22.008415485159173 0 -1 -1
14 1 20.438892615913918 1.5707925150632778 1.5694299053419627 0 0 0
15 1 22.009523666683748 3.14284938073216 22.007831291223813 -1 0 -1
16 1 1.5701762728700916 4.714020760185846 1.5688184640887235 0 0 0
17 1 3.141779471923244 3.1418119353558702 22.007689062152078 0 0 -1
18 1 4.711631849964001 4.711516506707247 1.5666419053511556 0 0 0
19 1 6.286533488129965 3.141529390112065 22.008687247988256 0 0 -1
20 1 7.858673673772097 4.712204073405327 1.568512008510972 0 0 0
21 1 9.43198133402895 3.141429013789123 22.009371425803675 0 0 -1
22 1 11.004786394797279 4.712244703871975 1.5691513847016374 0 0 0
23 1 12.577602937196408 3.141474395259997 22.00937314078717 0 0 -1
24 1 14.150881164485444 4.712303330441958 1.5685400296626295 0 0 0
25 1 15.723019504532049 3.1416312885817215 22.00869284495876 0 0 -1
26 1 17.297867757971296 4.711645066057942 1.566690505027931 0 0 0
27 1 18.867735754721636 3.141899146452174 22.007700957837834 0 0 -1
28 1 20.439318367639725 4.714071446218932 1.5688313442944457 0 0 0
29 1 22.009541465695055 6.28719885753239 22.00755402430775 -1 0 -1
30 1 1.5702691283054149 7.859118935191272 1.5686250873421328 0 0 0
31 1 3.1416525387354954 6.286541901489443 22.007204009026324 0 0 -1
32 1 4.711775808854355 7.858158876104043 1.566601638691418 0 0 0
33 1 6.285245349854001 6.285211926184576 22.00674578002569 0 0 -1
34 1 7.856983583077907 7.8571051921978725 1.564175109507927 0 0 0
35 1 9.431854811621234 6.285335648388369 22.00861824788722 0 0 -1
36 1 11.00478668042334 7.857583766995332 1.5679530109657351 0 0 0
37 1 12.577728421824707 6.285390243776668 22.00863222155429 0 0 -1
38 1 14.152587661694522 7.857203407960449 1.5642066153192757 0 0 0
39 1 15.724312840923059 6.285323744480262 22.006780044517217 0 0 -1
40 1 17.297785812283347 7.85826419523688 1.5666369792518695 0 0 0
41 1 18.86789160044745 6.286624245793082 22.00721695142676 0 0 -1
42 1 20.439289794697896 7.8591661338433845 1.5686364006662823 0 0 0
43 1 3.6906570595603605e-05 9.432061007207746 22.007309116763775 0 0 -1
44 1 1.570273522218861 11.004559042761777 1.5684273860740976 0 0 0
45 1 3.1417181422486586 9.431913078772359 22.006954410076034 0 0 -1
46 1 4.71168867024183 11.004778436422361 1.566546289470226 0 0 0
47 1 6.285414491905282 9.43189151972729 22.006665774334426 0 0 -1
48 1 7.8572441426943955 11.005216407024278 1.5659943616158507 0 0 0
49 1 9.431849613428428 9.431887903095182 22.00813372422953 0 0 -1
50 1 11.004813203780024 11.005446938665578 1.568728713673255 0 0 0
51 1 12.577791022890292 9.431928486113218 22.008142048727592 0 0 -1
52 1 14.152410440296833 11.005292320621363 1.5659908590165588 0 0 0
53 1 15.724224145684271 9.43198710828528 22.006689428785872 0 0 -1
54 1 17.29795397820238 11.004871214656431 1.5665710924354836 0 0 0
55 1 18.867907690838464 9.431988219016722 22.006967814504083 0 0 -1
56 1 20.439375069474735 11.00460063322846 1.5684348286159506 0 0 0
57 1 7.43264825617311e-05 12.577160855003475 22.00729869773172 0 0 -1
58 1 1.5702285435161611 14.1501794559087 1.5684718459490596 0 0 0
59 1 3.141731076366128 12.57741311713811 22.006883920843794 0 0 -1
60 1 4.711621899911863 14.151481168771646 1.5662579844124689 0 0 0
61 1 6.285466908684968 12.577858979241611 22.00649361285248 0 0 -1
62 1 7.857190114402199 14.152630027435963 1.5642984112771312 0 0 0
63 1 9.431940084200255 12.578117662135849 22.00815848284978 0 0 -1
64 1 11.004841477484566 14.152024380837696 1.568944925425916 0 0 0
65 1 12.577767733049184 12.57815852488335 22.008171037349804 0 0 -1
66 1 14.152492713498416 14.152685821209676 1.564346436174341 0 0 0
67 1 15.724246446851136 12.577955257359102 22.006506084657772 0 0 -1
68 1 17.298076728395806 14.15157007170655 1.566276584886267 0 0 0
69 1 18.867969751100052 12.577482029033487 22.006894703056744 0 0 -1
70 1 20.439467539056015 14.150212569849721 1.5684818202529789 0 0 0
71 1 7.973925362153441e-05 15.72218572976313 22.007496781015476 0 0 -1
72 1 1.5701539292481732 17.29557075287656 1.5685571497223454 0 0 0
73 1 3.141747548182724 15.722838415141513 22.007020628242895 0 0 -1
74 1 4.711692443872091 17.297982863419595 1.5662810073549425 0 0 0
75 1 6.28563018855441 15.724069115483177 22.006431377835103 0 0 -1
76 1 7.85908301266239 17.29688331497223 1.568584933884603 0 0 0
77 1 9.432187959092948 15.723775759691852 22.00835202206371 0 0 -1
78 1 11.004853154901726 17.29672088028964 1.5693800591324902 0 0 0
79 1 12.577544071133694 15.723801624994227 22.008367406960748 0 0 -1
80 1 14.150613576529796 17.296927630531773 1.5686118039974348 0 0 0
81 1 15.7240870780342 15.724139336449502 22.00646308638848 0 0 -1
82 1 17.297970671631234 17.298036571087223 1.5663199850362906 0 0 0
83 1 18.8679596649753 15.722901986005315 22.007031079107566 0 0 -1
84 1 20.439508670819468 17.295603392128747 1.5685685732606212 0 0 0
85 1 4.309430097016025e-05 18.866717916818203 22.00778332127187 0 0 -1
86 1 1.5705995056939421 20.439028058280694 1.5692818061205014 0 0 0
87 1 3.1419296477853718 18.867523136139283 22.007521291718362 0 0 -1
88 1 4.714344141183317 20.439119602858607 1.5696283282198031 0 0 0
89 1 6.2869489457873575 18.867344226457856 22.008437340426468 0 0 -1
90 1 7.859659445231419 20.438681865388368 1.570511240700652 0 0 0
91 1 9.432230247620772 18.86724067114226 22.009073115139753 0 0 -1
92 1 11.004833208517814 20.43857633019828 1.5707587924117559 0 0 0
93 1 12.577470529373038 18.867269971968273 22.00907900108163 0 0 -1
94 1 14.14998474208674 20.43873733091122 1.570524174979645 0 0 0
95 1 15.722725780443966 18.8674118996387 22.008447452655417 0 0 -1
96 1 17.295264867870387 20.439194206428557 1.5696409282475987 0 0 0
97 1 18.86771330053422 18.86757954290626 22.007533212906623 0 0 -1
98 1 20.43897914398379 20.43905988467321 1.5692903964342981 0 0 0
99 1 22.009531622676572 0.00027496959312127233 3.1417436432429136 -1 0 0
100 1 1.5704739065026063 1.5708215497055882 4.713754351627874 0 0 0
101 1 3.141774721497221 0.00021239332980956598 3.1410843074384354 0 0 0
102 1 4.712836805531541 1.5690424812981765 4.712597884565438 0 0 0
103 1 6.286970564641003 22.009446030225913 3.141853696422978 0 -1 0
104 1 7.859549967963596 1.5692316314205568 4.713826809656656 0 0 0
105 1 9.432208074026617 22.009244970321213 3.1422382239705664 0 -1 0
106 1 11.004763400698582 1.5693178827288619 4.7137583823781855 0 0 0
107 1 12.577392345877566 22.00928389225693 3.1422476720438133 0 -1 0
108 1 14.149956956329882 1.5693284428105165 4.713851497696903 0 0 0
109 1 15.722596996499808 22.00953635594849 3.14187178899361 0 -1 0
110 1 17.296634597575853 1.5691722063936544 4.712621370844435 0 0 0
111 1 18.867754367387 0.00028772809208691156 3.1410979649810953 0 0 0
112 1 20.43898626947618 1.5708751639816452 4.713761454939857 0 0 0
113 1 22.009502557771434 3.1419346404570585 3.1409192397025003 -1 0 0
114 1 1.5687914709942818 4.712792307179007 4.712310828922615 0 0 0
115 1 3.139971027286636 3.139977470005284 3.139316463992976 0 0 0
116 1 4.705641742614755 4.705505182482432 4.705763066639031 0 0 0
117 1 6.285301084143883 3.139241474023228 3.139708687211385 0 0 0
118 1 7.856175877301453 4.706371470525472 4.70839365061115 0 0 0
119 1 9.431819887434141 3.1400086804679135 3.140838664773443 0 0 0
120 1 11.00474303504285 4.70801033988886 4.7096444587899535 0 0 0
121 1 12.577724555926645 3.140065219021701 3.14085444247252 0 0 0
122 1 14.153293434564084 4.70646601841888 4.708418866920324 0 0 0
123 1 15.724208503205947 3.139368895599934 3.1397390156044755 0 0 0
124 1 17.303789807379438 4.705649329977794 4.705807638033516 0 0 0
125 1 18.869485052655566 3.1400932265739283 3.1393548870327446 0 0 0
126 1 20.440622799218815 4.712857331548626 4.712332775953394 0 0 0
127 1 22.009521981490526 6.286335751899748 3.140555904771372 -1 0 0
128 1 1.5685577700366777 7.858557394131075 4.712217715032925 0 0 0
129 1 3.138751101651212 6.284494493194215 3.138357303853124 0 0 0
130 1 4.704113288714598 7.854259264875733 4.7057329274272295 0 0 0
131 1 6.279001790615241 6.278918576016679 3.1311367516126385 0 0 0
132 1 7.841252842158986 7.8420852597874084 4.687100587759676 0 0 0
133 1 9.431403351129171 6.282117962237068 3.1367419553584166 0 0 0
134 1 11.004777155258424 7.85304800595362 4.705540129031235 0 0 0
135 1 12.57813191313976 6.2821744778237605 3.136753591518638 0 0 0
136 1 14.168236317969768 7.84221892809493 4.68727546928546 0 0 0
137 1 15.730493056378544 6.279058627516345 3.1311966072914617 0 0 0
138 1 17.30536504668353 7.854394142909251 4.705786502991036 0 0 0
139 1 18.8707312769961 6.284593303926078 3.1383932140053354 0 0 0
140 1 20.440942207398166 7.8586074527969885 4.712232886834258 0 0 0
141 1 1.730483695036052e-05 9.43167123775747 3.140236192417461 0 0 0
142 1 1.5685014587117079 11.004556444767687 4.71167808084802 0 0 0
143 1 3.1391037589802657 9.431289490222806 3.138491770821129 0 0 0
144 1 4.7050496674213385 11.004930026117057 4.706224501752653 0 0 0
145 1 6.280313421511593 9.430687251335032 3.1336331374337076 0 0 0
146 1 7.848550907530961 11.006098866381878 4.697573739409352 0 0 0
147 1 9.429118182224604 9.429473804140127 3.1331953761573916 0 0 0
148 1 11.00472515463456 11.006680718535945 4.705286312856297 0 0 0
149 1 12.58043063576393 9.429552902973578 3.133182358266945 0 0 0
150 1 14.161065813816508 11.006238072148802 4.697365275473205 0 0 0
151 1 15.729264724216657 9.430790916669613 3.1336580137893417 0 0 0
152 1 17.304539307385152 11.005039498035508 4.706239612829286 0 0 0
153 1 18.870468409258578 9.431364090662479 3.1385193896237937 0 0 0
154 1 20.44110342497754 11.004594595287722 4.711690800330349 0 0 0
155 1 5.5697184858421734e-05 12.577464298418876 3.140135081738641 0 0 0
156 1 1.5681177736566216 14.151080597258073 4.711859890952059 0 0 0
157 1 3.1388360677938287 12.578073928567 3.138283599245915 0 0 0
158 1 4.702692066089192 14.156232056505475 4.704832659431405 0 0 0
159 1 6.2798229148028515 12.579619363625628 3.1333044490684694 0 0 0
160 1 7.840944436436663 14.167995679793963 4.687680564908874 0 0 0
161 1 9.428941993443441 12.581195453146623 3.1349284556726915 0 0 0
162 1 11.004795488739754 14.15527339484076 4.7096406040584595 0 0 0
163 1 12.580655556200451 12.581225086893602 3.1349300390627386 0 0 0
164 1 14.168629941099509 14.168022228924501 4.687750887496957 0 0 0
165 1 15.729827354511777 12.579731388094276 3.1333145044855395 0 0 0
166 1 17.306952012825743 14.15633393556456 4.704852835706779 0 0 0
167 1 18.870815279541098 12.578145877019974 3.1383044147227035 0 0 0
168 1 20.441546540373633 14.151123978376921 4.711861481466137 0 0 0
169 1 6.238672619691187e-05 15.723298634046712 3.140223539481927 0 0 0
170 1 1.56838586253742 17.29744842381521 4.711853011761341 0 0 0
171 1 3.1383253677545953 15.725346384660577 3.1378746670808626 0 0 0
172 1 4.704271990578672 17.305645156719297 4.704527156219775 0 0 0
173 1 6.278823446409682 15.730949842788512 3.1306959957842713 0 0 0
174 1 7.856614631059712 17.30297536570461 4.7089165958509565 0 0 0
175 1 9.431850970195171 15.727016530991508 3.1380300985877048 0 0 0
176 1 11.004818559920054 17.300473271526787 4.7107719780468225 0 0 0
177 1 12.577816460477246 15.72702955301716 3.138058600927524 0 0 0
178 1 14.153015270900427 17.303015245239255 4.7089528952715805 0 0 0
179 1 15.730810929975615 15.730994572248123 3.1307716741905884 0 0 0
180 1 17.305304076345433 17.30567367538241 4.704592680242091 0 0 0
181 1 18.871343126966497 15.725407740259445 3.137892396450167 0 0 0
182 1 20.441225870875737 17.297475322364413 4.711866368430173 0 0 0
183 1 2.613685481621293e-05 18.868100905110428 3.140621497633949 0 0 0
184 1 1.5703777737511595 20.439493084871515 4.713595613000088 0 0 0
185 1 3.1396633307460995 18.870128808357684 3.1388223547729424 0 0 0
186 1 4.712633901829511 20.441266787782155 4.712369767171605 0 0 0
187 1 6.285469282120183 18.870197143284845 3.1396637102650073 0 0 0
188 1 7.859670430526169 20.440022983862338 4.7139314155879015 0 0 0
189 1 9.432055818491365 18.86893178515288 3.1411080526113473 0 0 0
190 1 11.004794961294946 20.439547246894207 4.713901150382883 0 0 0
191 1 12.577599341425381 18.868959825818635 3.141120973018459 0 0 0
192 1 14.149903859172904 20.440078364427087 4.71395323637323 0 0 0
193 1 15.724157846009561 18.870255187139833 3.139691257097661 0 0 0
194 1 17.296920590238706 20.44134209563829 4.712386201647115 0 0 0
195 1 18.869941842064083 18.87017501473733 3.1388468971556414 0 0 0
196 1 20.439164502435936 20.43952872719747 4.713598949066205 0 0 0
197 1 22.009514666699 0.0004863328252638957 6.286650222167851 -1 0 0
198 1 1.570408574709331 1.5709843670983257 7.859293266500559 0 0 0
199 1 3.1415131634109 0.0005090249696159117 6.286245912904642 0 0 0
200 1 4.712499509989383 1.5695045278027633 7.858787263558943 0 0 0
201 1 6.286013066894896 0.00032803233351382275 6.286082956301279 0 0 0
202 1 7.858690924486891 1.568187238110371 7.859262945891311 0 0 0
203 1 9.432688362457585 22.009212034668685 6.287119444934752 0 -1 0
204 1 11.0047002948679 1.5707038858321807 7.860138934175014 0 0 0
205 1 12.576812840819889 22.00925389158725 6.287132816276096 0 -1 0
206 1 14.15073758921042 1.5682627775908577 7.859261879151126 0 0 0
207 1 15.723487241653524 0.0004308979230334197 6.286084543687996 0 0 0
208 1 17.29691274704357 1.5696303902390925 7.8587803802205105 0 0 0
209 1 18.867964323659788 0.0005907120095702718 6.286244275275864 0 0 0
210 1 20.439005839367532 1.5710413571389628 7.859287541085543 0 0 0
211 1 22.009474978677467 3.142060446007584 6.286297388707534 -1 0 0
212 1 1.569149413042891 4.713014345457369 7.858855744595406 0 0 0
213 1 3.1401182039083824 3.1404128528626503 6.285453266136551 0 0 0
214 1 4.707884981700475 4.70811354910189 7.857181514858163 0 0 0
215 1 6.283029051683075 3.1352826752695218 6.2834039777060084 0 0 0
216 1 7.852786242533018 4.698442331944302 7.855349092660513 0 0 0
217 1 9.432853932994124 3.1385514694101655 6.285966447988643 0 0 0
218 1 11.004624731019119 4.71580825897314 7.8628444531568356 0 0 0
219 1 12.576562151013952 3.138602160760598 6.285994953793131 0 0 0
220 1 14.156536442081574 4.698613386324073 7.855388551833376 0 0 0
221 1 15.72638387464842 3.1354130885790443 6.283437710646713 0 0 0
222 1 17.301465018901062 4.708254945151373 7.8572323138997096 0 0 0
223 1 18.869278930735025 3.1405299598044865 6.285466786361205 0 0 0
224 1 20.440213377738782 4.713083313851793 7.858860235140498 0 0 0
225 1 22.009482343593096 6.286006172239134 6.285836774185941 -1 0 0
226 1 1.5680728455685213 7.858701033363519 7.859080694644537 0 0 0
227 1 3.135041954390207 6.282889791187096 6.283131850176691 0 0 0
228 1 4.69844677460984 7.853101057645351 7.854841903351053 0 0 0
229 1 6.26156207469769 6.26139033700766 6.262812429003589 0 0 0
230 1 7.795229882379148 7.792043810856586 7.790776157804735 0 0 0
231 1 9.430769012589622 6.270289592023433 6.27574576600521 0 0 0
232 1 11.005259703775595 7.858723295764893 7.845550902946162 0 0 0
233 1 12.578811786281408 6.270334339591248 6.2757674061872954 0 0 0
234 1 14.21391271557659 7.792295489985857 7.791167822372723 0 0 0
235 1 15.747653578785728 6.261723610590123 6.263048509837647 0 0 0
236 1 17.310900564859416 7.853251920573569 7.854870242645486 0 0 0
237 1 18.874374614336173 6.282996348410152 6.283159152709189 0 0 0
238 1 20.441394011758288 7.858751970322512 7.859079991768726 0 0 0
239 1 22.009546425349892 9.432064044862043 6.2858623924996175 -1 0 0
240 1 1.5693719351349762 11.00478427661915 7.859329901079771 0 0 0
241 1 3.1356258646861486 9.43170402613656 6.283599897859314 0 0 0
242 1 4.7061431060277155 11.00603546907535 7.857531027582243 0 0 0
243 1 6.262440139398524 9.425818758286425 6.269268366364717 0 0 0
244 1 7.823889733436637 11.012548767314978 7.811466968706706 0 0 0
245 1 9.382989662251896 9.387971803528515 6.251632834599772 0 0 0
246 1 11.004629901639367 11.009822873880713 7.519622388944645 0 0 0
247 1 12.626575921314114 9.388304936111261 6.251512114994818 0 0 0
248 1 14.18586735538135 11.013048573165943 7.811133394421739 0 0 0
249 1 15.74715742018748 9.425785205771021 6.269234109959953 0 0 0
250 1 17.30367668786639 11.006182766331936 7.857465506461858 0 0 0
251 1 18.873914470175148 9.431786899669115 6.283617194042069 0 0 0
252 1 20.44026101317067 11.004833551751503 7.859324725327973 0 0 0
253 1 5.5802849052775805e-05 12.577354538642098 6.285706910453208 0 0 0
254 1 1.5671163220364484 14.15131052838452 7.85914424892958 0 0 0
255 1 3.134445054564816 12.578274147410994 6.283133687019861 0 0 0
256 1 4.694407056596896 14.15842167107077 7.8545894321137695 0 0 0
257 1 6.2594387051370175 12.586740152469918 6.267939146328344 0 0 0
258 1 7.782136770631821 14.226871130437168 7.7865216029641875 0 0 0
259 1 9.380636707290988 12.622932170450863 6.26011313155991 0 0 0
260 1 11.005059592182095 14.136408482704116 7.855260715065667 0 0 0
261 1 12.628821383382494 12.622761854699785 6.260159081333027 0 0 0
262 1 14.227167789170853 14.226730688704725 7.786922208576787 0 0 0
263 1 15.750286979355174 12.587030748153 6.267805906781598 0 0 0
264 1 17.31520281360753 14.158527641672677 7.854603152288213 0 0 0
265 1 18.875204126674966 12.578381579814058 6.283121241235464 0 0 0
266 1 20.442511530547982 14.151354038059742 7.859150038864269 0 0 0
267 1 3.641907547421996e-05 15.724111045931311 6.285625701550561 0 0 0
268 1 1.5685125244126097 17.29773996625594 7.858805162656214 0 0 0
269 1 3.1333587692595746 15.727856182972516 6.28252642893614 0 0 0
270 1 4.705907905638543 17.303541640578455 7.856791001600598 0 0 0
271 1 6.2576984435520355 15.751941162936012 6.260110113345199 0 0 0
272 1 7.851393694268953 17.3127843160294 7.855119669548466 0 0 0
273 1 9.431330202282044 15.737131359477104 6.278965302544735 0 0 0
274 1 11.004741307151386 17.289367622375142 7.863867847494813 0 0 0
275 1 12.578280548114575 15.737188457590745 6.278955169303609 0 0 0
276 1 14.158160613627022 17.312884788562062 7.855132084628179 0 0 0
277 1 15.751876385463087 15.751991613800662 6.260184184760227 0 0 0
278 1 17.303644504096475 17.303604747716243 7.856796601064938 0 0 0
279 1 18.87623376045553 15.727912280402933 6.282553151585092 0 0 0
280 1 20.441064800550084 17.29777345891175 7.858804659891273 0 0 0
281 1 5.947411663624825e-06 18.868504412644356 6.286114974477166 0 0 0
282 1 1.5702479321220375 20.43969157931655 7.859309269724555 0 0 0
283 1 3.1394863214369866 18.870323121823517 6.285122300232983 0 0 0
284 1 4.712102626919747 20.441243532493168 7.858729158133974 0 0 0
285 1 6.282375554505294 18.87559144470005 6.283046028616197 0 0 0
286 1 7.858544649352571 20.441655461478557 7.8591878142189495 0 0 0
287 1 9.433186480067443 18.869995604753147 6.286373129478793 0 0 0
288 1 11.004741028401563 20.4373326182564 7.8601114225052235 0 0 0
289 1 12.576367790616574 18.870021745523463 6.286393053976331 0 0 0
290 1 14.150957332474135 20.44172932819721 7.859182913823831 0 0 0
291 1 15.727182879971352 18.875645140287666 6.283062413226018 0 0 0
292 1 17.2973993701907 20.441329296032386 7.858721181173491 0 0 0
293 1 18.870073365936697 18.870376932887776 6.285130144374596 0 0 0
294 1 20.439254831456537 20.43972791232249 7.85930637092751 0 0 0
295 1 22.00949801523805 0.0005694736613460565 9.432340325607658 -1 0 0
296 1 1.5703798059232932 1.5710113687935974 11.005205489034514 0 0 0
297 1 3.1413297804562794 0.0005710062167412182 9.432278482750204 0 0 0
298 1 4.712340166057381 1.5693369358682536 11.005559812371715 0 0 0
299 1 6.285107399964154 0.00029638435325828717 9.432063510170684 0 0 0
300 1 7.858229662606872 1.5672266634836294 11.005041880919476 0 0 0
301 1 9.432134724497464 22.008933609524874 9.431957761599556 0 -1 0
302 1 11.004675645595505 1.5672903371195352 11.00514246345039 0 0 0
303 1 12.577294880992772 22.008973556241653 9.431951504439485 0 -1 0
304 1 14.151166245996217 1.567295726737238 11.00503114346907 0 0 0
305 1 15.724336196133514 0.00039885638383250165 9.432043008412236 0 0 0
306 1 17.297051063162627 1.5694532706799726 11.005523129787715 0 0 0
307 1 18.868115756027837 0.0006515739941628665 9.432256208632694 0 0 0
308 1 20.439016953560948 1.5710654117817837 11.005185208716997 0 0 0
309 1 22.009460136787062 3.142153139770798 9.43217763405612 -1 0 0
310 1 1.56927480292782 4.713121227520806 11.005345542411044 0 0 0
311 1 3.140157914751521 3.1406097004781857 9.43214358191056 0 0 0
312 1 4.70830004583157 4.708034823170043 11.006754993602256 0 0 0
313 1 6.282236063559097 3.136296574124025 9.431961082994842 0 0 0
314 1 7.853444551085405 4.697603310780591 11.007426706501592 0 0 0
315 1 9.430961649052696 3.139777387100222 9.432101975868791 0 0 0
316 1 11.004560142763015 4.699944306603471 11.008248292717651 0 0 0
317 1 12.578352382022258 3.139730099109108 9.432117720736317 0 0 0
318 1 14.155869929048075 4.697731783817606 11.007440594010987 0 0 0
319 1 15.727123039269959 3.1364208438308547 9.431956220131324 0 0 0
320 1 17.301031122219175 4.7081643173203656 11.006706733572388 0 0 0
321 1 18.86920040153823 3.1407210094248037 9.43212749343106 0 0 0
322 1 20.440079503110876 4.713182969546624 11.005327468807463 0 0 0
323 1 22.00946396881974 6.285877790521816 9.432139813756319 -1 0 0
324 1 1.5688597730637117 7.858851413087971 11.004922140400724 0 0 0
325 1 3.1368204767696426 6.282966084236778 9.43211297591469 0 0 0
326 1 4.702498595355659 7.853143267848901 11.0075743719692 0 0 0
327 1 6.271600951833281 6.271986137637526 9.431695214052125 0 0 0
328 1 7.811978732956425 7.797872080852202 11.057123444542395 0 0 0
329 1 9.417387994294593 6.288574006217086 9.42792794840714 0 0 0
330 1 11.004547464161453 7.730644790368162 11.08088950042777 0 0 0
331 1 12.591687833826503 6.2880200964918345 9.42807303991413 0 0 0
332 1 14.196877713843904 7.798240379173696 11.056542646385447 0 0 0
333 1 15.73765496090876 6.2721693025602665 9.431706211228668 0 0 0
334 1 17.30681392649493 7.853285179892687 11.007544328625846 0 0 0
335 1 18.872535559479868 6.283076846413769 9.432121537611899 0 0 0
336 1 20.44059750329263 7.85889605754511 11.00492560025479 0 0 0
337 1 8.889644271377975e-06 9.432187356664178 9.4322258810246 0 0 0
338 1 1.5704599127906487 11.004781711669109 11.004774145205387 0 0 0
339 1 3.140039544946707 9.431392252518908 9.43220736088582 0 0 0
340 1 4.712119666137996 11.005662226072745 11.004533690511822 0 0 0
341 1 6.281684031265194 9.422653756175082 9.430515551268822 0 0 0
342 1 7.8469308865419904 11.009416269410556 11.043771594785769 0 0 0
343 1 9.125539409392129 9.263637448645618 9.387351012722942 0 0 0
344 1 11.005399801660705 11.002662633096774 11.514168620862767 0 0 0
345 1 12.88487947170534 9.266637108848252 9.3870325581884 0 0 0
346 1 14.162439363948808 11.00973880142471 11.043814062269746 0 0 0
347 1 15.728238609062096 9.422992294312758 9.43051377515414 0 0 0
348 1 17.29754459632891 11.0057917627753 11.004599925152215 0 0 0
349 1 18.869531919252378 9.431506439376447 9.432220871833573 0 0 0
350 1 20.439172951249883 11.00483294931736 11.004787171252401 0 0 0
351 1 5.22227334346519e-05 12.57737717957166 9.432406818197467 0 0 0
352 1 1.5678557036322864 14.151234019653586 11.005431715919563 0 0 0
353 1 3.1390854458241244 12.578688883256945 9.432363921415757 0 0 0
354 1 4.697908386171047 14.158020203687208 11.008230859036964 0 0 0
355 1 6.281309976761416 12.592115656508003 9.430823350526953 0 0 0
356 1 7.796464161950282 14.21863675642548 11.06147758994741 0 0 0
357 1 9.119649381376624 12.77510045803043 9.39276753597603 0 0 0
358 1 11.004925947048864 14.209436416005177 11.040535603919293 0 0 0
359 1 12.890632145170924 12.773874416993307 9.392825987158991 0 0 0
360 1 14.212907944572176 14.218583762464396 11.061212853920642 0 0 0
361 1 15.728471317488411 12.592180974488604 9.430868873076838 0 0 0
362 1 17.311721543875283 14.15814735071062 11.008244444806346 0 0 0
363 1 18.870600842806095 12.578773930162846 9.432376999106308 0 0 0
364 1 20.441776804795758 14.151281045984032 11.005429056915457 0 0 0
365 1 3.0722106649573573e-05 15.724657666127658 9.432480309094828 0 0 0
366 1 1.5687493647434025 17.29762149827737 11.006047113137965 0 0 0
367 1 3.134657448521218 15.728280189049405 9.432344730233762 0 0 0
368 1 4.706690428779237 17.303150359303388 11.007418043587606 0 0 0
369 1 6.266981975618746 15.741201467156323 9.431526163514151 0 0 0
370 1 7.852491160278025 17.312244256039985 11.007001744128365 0 0 0
371 1 9.412673286281542 15.717051857053855 9.428508687067668 0 0 0
372 1 11.004729933952671 17.303826636493575 11.002420947413745 0 0 0
373 1 12.596845692963244 15.717455341283292 9.428547984806507 0 0 0
374 1 14.157063351388269 17.312372099831176 11.007009905973566 0 0 0
375 1 15.742579783924759 15.741303644448887 9.431531266603919 0 0 0
376 1 17.30286291234685 17.303229672112003 11.007405132553394 0 0 0
377 1 18.874929774990157 15.728334296686443 9.432343436197606 0 0 0
378 1 20.440825464640444 17.29766066210199 11.00603495472729 0 0 0
379 1 22.009538601375496 18.86862479177789 9.432474214676859 -1 0 0
380 1 1.5702692752810967 20.439647330535777 11.00549210598681 0 0 0
381 1 3.1394605965232047 18.870296144529654 9.432396978057259 0 0 0
382 1 4.712099402838787 20.44107294878399 11.005769575675508 0 0 0
383 1 6.281284612390924 18.87455353606548 9.431975564387795 0 0 0
384 1 7.858361444364129 20.44147453804136 11.004832705546967 0 0 0
385 1 9.43083615846156 18.86817617771637 9.431249058473925 0 0 0
386 1 11.004722501630006 20.43934145686865 11.004465611651405 0 0 0
387 1 12.578662118102198 18.868276043981645 9.431252495247039 0 0 0
388 1 14.151113922310143 20.441554343396117 11.00481632256402 0 0 0
389 1 15.728219719310891 18.87463240468299 9.431967415483452 0 0 0
390 1 17.2973840930047 20.441164021269856 11.005733296510616 0 0 0
391 1 18.870067224377536 18.87036096931121 9.432380738619909 0 0 0
392 1 20.439218311292873 20.43968796318004 11.005472874070563 0 0 0
393 1 22.00949660694069 0.0004969873987447607 12.578039547760131 -1 0 0
394 1 1.570338202241329 1.5709347671006273 14.150828188924343 0 0 0
395 1 3.1413673866719343 0.0003948017269619347 12.578440424171664 0 0 0
396 1 4.712168325290075 1.5687332554603166 14.152335974600543 0 0 0
397 1 6.2854603229590955 22.009330761418283 12.578685694441992 0 -1 0
398 1 7.857324312277865 1.566015598553836 14.153708587607497 0 0 0
399 1 9.431834133706808 22.008006919236472 12.578916039337845 0 -1 0
400 1 11.00472267650847 1.5655624367251486 14.154491158919958 0 0 0
401 1 12.577597884603964 22.008056913897434 12.578889032051485 0 -1 0
402 1 14.152112557978112 1.5661087322871727 14.153655291358604 0 0 0
403 1 15.723994584377115 22.009438124457024 12.578645062493406 0 -1 0
404 1 17.297258601997864 1.568853988072269 14.152275641322854 0 0 0
405 1 18.868077957800907 0.00047550307226926404 12.57840355895914 0 0 0
406 1 20.439081970992735 1.5709835684183204 14.15080450283933 0 0 0
407 1 22.009463887137958 3.1422678777050828 12.577991707186243 -1 0 0
408 1 1.5688994298627472 4.713349884995662 14.15148085337327 0 0 0
409 1 3.14005485384247 3.140501124210607 12.578830635723225 0 0 0
410 1 4.705462690224346 4.705979341125218 14.157982354990992 0 0 0
411 1 6.2825170139817175 3.134719896774322 12.580903959463333 0 0 0
412 1 7.848810755473932 4.697157766635235 14.16426253583294 0 0 0
413 1 9.430346835556898 3.129979221365241 12.58293576326622 0 0 0
414 1 11.004700240822473 4.698393430957655 14.163840984825763 0 0 0
415 1 12.578995881491952 3.1300286313281096 12.582898324672133 0 0 0
416 1 14.160596418069627 4.697235280855687 14.164212458426539 0 0 0
417 1 15.726858975504081 3.1348339730778862 12.58085799295772 0 0 0
418 1 17.30391346515289 4.706118102194189 14.157894395800046 0 0 0
419 1 18.869316147962873 3.140602138031155 12.578789846248462 0 0 0
420 1 20.44048726164506 4.7134053622883965 14.151446563556034 0 0 0
421 1 22.009474485104448 6.286451853238089 12.577890669855352 -1 0 0
422 1 1.5691511873762845 7.859179140966145 14.150931759847493 0 0 0
423 1 3.136206870962831 6.283526770183112 12.580096681063383 0 0 0
424 1 4.705127363391339 7.854415755740314 14.157117569856693 0 0 0
425 1 6.264338712429276 6.263645684334659 12.597206683084819 0 0 0
426 1 7.836048030109265 7.833906562802153 14.182605868490944 0 0 0
427 1 9.412705822551185 6.242986562842616 12.61055211186015 0 0 0
428 1 11.004735304553655 7.839979895807281 14.177325758458812 0 0 0
429 1 12.596643258277343 6.243050717302522 12.610487097039206 0 0 0
430 1 14.173485206905902 7.833928319987105 14.182492432923755 0 0 0
431 1 15.744820126945626 6.263973181582573 12.596942598996762 0 0 0
432 1 17.30436312551599 7.854531916855742 14.157070231813618 0 0 0
433 1 18.873181053069064 6.283625249455745 12.580053599670638 0 0 0
434 1 20.4403452862795 7.859218511231203 14.150912342831509 0 0 0
435 1 22.00954673763379 9.432360734656273 12.577590575911762 -1 0 0
436 1 1.569637999721903 11.004574658998264 14.15128820132298 0 0 0
437 1 3.1383477112281533 9.431987702897313 12.578942645371999 0 0 0
438 1 4.7087352336010095 11.004389437583388 14.15561043687109 0 0 0
439 1 6.267872494711738 9.42485510108203 12.589635631177355 0 0 0
440 1 7.8542991346212725 11.004296085430207 14.16419880351883 0 0 0