LAMMPS data file via write_data, version 2 Aug 2023, timestep = 44, units = metal

690 atoms
3 atom types

0 22.009546999999998 xlo xhi
0 22.009546999999998 ylo yhi
0 22.009546999999998 zlo zhi

Masses

1 183.84
2 1.008
3 4.0026

Atoms # atomic

1 1 22.005863912422864 0.00022254061620507958 0.002108689535533824 -1 0 0
2 1 1.569416225015114 1.5730296652148485 1.5752085340160624 0 0 0
3 1 3.14044255976506 0.0011930713282230936 0.0029129726778911835 0 0 0
4 1 4.713552229527704 1.574068990426931 1.575784197905371 0 0 0
5 1 6.284943475343814 0.001583914164749453 0.002846092124148259 0 0 0
6 1 7.857800662241052 1.5744498404695797 1.5756926763766097 0 0 0
7 1 9.429354144170594 0.0011095564197244354 0.0021155019233769436 0 0 0
8 1 11.001880983107075 1.573899110386906 1.5750030369047012 0 0 0
9 1 12.57353285832409 0.00017538540882990116 0.0012868994869591178 0 0 0
10 1 14.14605943455536 1.572928587157019 1.57425410243032 0 0 0
11 1 15.717552943635173 22.00895699781886 0.0008385710944523459 0 -1 0
12 1 17.290389804778712 1.5721758122637766 1.5738885763137695 0 0 0
13 1 18.861738841406034 22.00896849606976 0.0011802573894224126 0 -1 0
14 1 20.434848471884145 1.572199500574306 1.5742502106321823 0 0 0
15 1 22.006901597833135 3.1439068563892403 0.0032944329247240685 -1 0 0
16 1 1.5700712389606983 4.7169469205967625 1.57617659338746 0 0 0
17 1 3.1411893028489404 3.1446585488349497 0.004314307157702004 0 0 0
18 1 4.714143915122982 4.717708227449717 1.5776076716635412 0 0 0
19 1 6.285611050950316 3.145149895505518 0.004852195855762026 0 0 0
20 1 7.858636573314795 4.71838448426759 1.578181575617481 0 0 0
21 1 9.429894579646525 3.144897568681859 0.0045586246029446454 0 0 0
22 1 11.00243181243084 4.7179071628501505 1.5774197574807078 0 0 0
23 1 12.574091668501458 3.1441285332403353 0.00379612724822025 0 0 0
24 1 14.146435894397113 4.7169017487019245 1.576138114080991 0 0 0
25 1 15.718333500325079 3.143429996761372 0.00306171167839547 0 0 0
26 1 17.29105699624117 4.716036045386434 1.5750094089711135 0 0 0
27 1 18.86277715044753 3.143257597606254 0.002858272917984333 0 0 0
28 1 20.435700410866847 4.716046373712311 1.5748854951473463 0 0 0
29 1 22.00700017265285 6.288351191523214 0.0038842930570900116 -1 0 0
30 1 1.5698676814876484 7.861216716997388 1.5764383508627793 0 0 0
31 1 3.1411807632090873 6.288701406720374 0.00533108388033121 0 0 0
32 1 4.714019727535379 7.861778584245039 1.5781765468191002 0 0 0
33 1 6.285147074781624 6.288579985358368 0.0069831280990429005 0 0 0
34 1 7.8583994543864994 7.862111296112596 1.5792068003910529 0 0 0
35 1 9.430128505356425 6.288824119411792 0.006815152467511696 0 0 0
36 1 11.002773114875577 7.862296783137483 1.5787174241248194 0 0 0
37 1 12.574301590527632 6.288213017098271 0.005588655168762701 0 0 0
38 1 14.146472639100166 7.86137079535815 1.5762414670565057 0 0 0
39 1 15.718684906950045 6.287734598038346 0.004222556053814347 0 0 0
40 1 17.290951606798213 7.860705766499693 1.5747304984265706 0 0 0
41 1 18.863105693666526 6.287767876364387 0.003429093126090099 0 0 0
42 1 20.43539698667681 7.860733828263681 1.5750375703172819 0 0 0
43 1 22.006291279832208 9.432865423978273 0.0035228307622726072 -1 0 0
44 1 1.5689511708557604 11.005493623515283 1.575805183188269 0 0 0
45 1 3.1404877363643804 9.433124860150139 0.005196098500265581 0 0 0
46 1 4.712986545048536 11.005900315960458 1.5772549409721148 0 0 0
47 1 6.284585657389679 9.433284193877338 0.006868708590058753 0 0 0
48 1 7.857506677799327 11.006263660406866 1.5776383859450436 0 0 0
49 1 9.42951656971151 9.433215095970981 0.006850860695789073 0 0 0
50 1 11.002121748150948 11.006471647447277 1.57602634611037 0 0 0
51 1 12.573623624777687 9.433148704976453 0.004423857706443947 0 0 0
52 1 14.145670793453363 11.006014649206506 1.575089435600808 0 0 0
53 1 15.71784449794112 9.432775397963098 0.0032423746683696293 0 0 0
54 1 17.290412508095503 11.005174477400844 1.5733632387691479 0 0 0
55 1 18.862300859744728 9.432660905108113 0.0025693011390613995 0 0 0
56 1 20.43460216729747 11.005159368130727 1.574252976525675 0 0 0
57 1 22.00527431325779 12.577296241517928 0.00257397200788979 -1 0 0
58 1 1.5680023356899682 14.149923514254414 1.5747863440340235 0 0 0
59 1 3.139493605946436 12.577748607322132 0.004235248088290916 0 0 0
60 1 4.711884626415038 14.150489413154341 1.5756259589579646 0 0 0
61 1 6.283575002996331 12.578007391292097 0.005243206545578931 0 0 0
62 1 7.85628990850289 14.150855206312798 1.5743528796811537 0 0 0
63 1 9.428748749518387 12.577540980154813 0.0031739222910786126 0 0 0
64 1 11.001156667864718 14.150543061474876 1.5723076181397542 0 0 0
65 1 12.57265519813833 12.577010783086697 0.0011214248472390194 0 0 0
66 1 14.145240659929394 14.150126704423124 1.5703066278769 0 0 0
67 1 15.716807822819385 12.576787492948565 0.00012849088129580154 0 0 0
68 1 17.289654034827713 14.14936539614189 1.571393617454641 0 0 0
69 1 18.861269191136522 12.576934505473861 0.0009987278483704503 0 0 0
70 1 20.433768149502104 14.149497635747904 1.5731596903570948 0 0 0
71 1 22.00463548753101 15.72157628793705 0.0016621330426813085 -1 0 0
72 1 1.5676439193740783 17.294445731930704 1.5740729596103968 0 0 0
73 1 3.1389433421073925 15.722429127995706 0.003135014743619867 0 0 0
74 1 4.711404046383757 17.29551283786353 1.5742565405614688 0 0 0
75 1 6.283240063826747 15.722986193633519 0.0032840448517739785 0 0 0
76 1 7.85579915879026 17.296117032649793 1.5724591668088541 0 0 0
77 1 9.428315871550717 15.722316090590795 0.0008015192807111977 0 0 0
78 1 11.000652341621027 17.295742346782376 1.570626882569901 0 0 0
79 1 12.572370926961444 15.721300185482512 22.007539321841573 0 0 -1
80 1 14.145181961454686 17.29483671303507 1.5695990720048214 0 0 0
81 1 15.7164952241417 15.720875184531685 22.007351476648005 0 0 -1
82 1 17.28999828888578 17.29438107994351 1.5700873889175626 0 0 0
83 1 18.86060702530986 15.720877034185598 22.009229690993834 0 0 -1
84 1 20.433570964676143 17.293838384194412 1.572524429568361 0 0 0
85 1 22.00489977046763 18.865850209277234 0.001454352523640267 -1 0 0
86 1 1.5682316866932908 20.4388936764349 1.5741745349666467 0 0 0
87 1 3.139196638284156 18.867041385740038 0.0026330063057471076 0 0 0
88 1 4.712182234456809 20.439983203035037 1.5742005769462222 0 0 0
89 1 6.2838552806332 18.867445066197174 0.0019427264091734127 0 0 0
90 1 7.8567179596072 20.44021889107737 1.5734663369726773 0 0 0
91 1 9.428700618714938 18.866759051134625 0.0003442958620229422 0 0 0
92 1 11.001183088206155 20.43969054792755 1.5724338203771884 0 0 0
93 1 12.572888390124598 18.86569867638213 22.008464899709445 0 0 -1
94 1 14.145571283990064 20.43874172790191 1.5717530051808897 0 0 0
95 1 15.716707181071879 18.864888754236855 22.008006757139874 0 0 -1
96 1 17.289852374922326 20.438070532755436 1.5718684449896378 0 0 0
97 1 18.861005103228987 18.865167498618355 22.00910037303457 0 0 -1
98 1 20.434094227116322 20.438178967847097 1.5729235525256324 0 0 0
99 1 22.006826038850313 0.001048445115074473 3.1462259258699365 -1 0 0
100 1 1.5703467820204215 1.5738271307537213 4.719340464179572 0 0 0
101 1 3.141171566796225 0.002351273432539983 3.1469364053978532 0 0 0
102 1 4.714421974495087 1.5757594543817102 4.720061993067166 0 0 0
103 1 6.285166490120594 0.0036431925227839476 3.1467540786633417 0 0 0
104 1 7.858421753461506 1.5769123756381527 4.720096533637729 0 0 0
105 1 9.429428734955144 0.0036996379046527763 3.1461186505889263 0 0 0
106 1 11.002141811756985 1.5762975274018245 4.71928620657804 0 0 0
107 1 12.573779442076317 0.002830830437126216 3.1453475174873966 0 0 0
108 1 14.146322992800984 1.5745707570639704 4.718406697422216 0 0 0
109 1 15.718278390001375 0.0016215858889373205 3.144943821876137 0 0 0
110 1 17.291201680996288 1.5728655979430726 4.717844780776839 0 0 0
111 1 18.862834426420115 0.0009450577096126864 3.145198637756062 0 0 0
112 1 20.435875004931063 1.5723054839061243 4.718237946283152 0 0 0
113 1 22.008148549033187 3.1446252173763805 3.1469815937290977 -1 0 0
114 1 1.5719667363026668 4.717625911145587 4.720061365777277 0 0 0
115 1 3.1426781134105704 3.1461830370005455 3.148430663297984 0 0 0
116 1 4.716414102747556 4.719950674284157 4.722150445088533 0 0 0
117 1 6.286819273562965 3.147401906972927 3.1491552458912695 0 0 0
118 1 7.860405421162125 4.7212283999426825 4.7231069809851345 0 0 0
119 1 9.430636609090545 3.1476069923555428 3.148946214581701 0 0 0
120 1 11.003281094878231 4.720719490814384 4.722236224267267 0 0 0
121 1 12.574330504234304 3.146499798431929 3.147886795311186 0 0 0
122 1 14.146711781238588 4.71821720784128 4.720176093471486 0 0 0
123 1 15.718675702495373 3.1450323485295972 3.146784879714906 0 0 0
124 1 17.292356694283868 4.715628730652825 4.717923919660967 0 0 0
125 1 18.863610522168813 3.144113822021105 3.146239992112414 0 0 0
126 1 20.43777143758252 4.715424362955951 4.717910424810161 0 0 0
127 1 22.00855201505187 6.2889508090851 3.14750270498055 -1 0 0
128 1 1.5718373094545617 7.861915635034394 4.720463585283777 0 0 0
129 1 3.1430796193336406 6.2900707111331196 3.149252052567813 0 0 0
130 1 4.716264079038651 7.863333014039641 4.722466023484081 0 0 0
131 1 6.287365737948394 6.291056849675143 3.1508269398871107 0 0 0
132 1 7.860295372393266 7.8641556031584114 4.723868656803791 0 0 0
133 1 9.43186483111211 6.292074051634797 3.1516580003005155 0 0 0
134 1 11.005084675321873 7.8665033153871535 4.72565374903623 0 0 0
135 1 12.574672903423375 6.290781475579069 3.1497215843537747 0 0 0
136 1 14.147736964490251 7.862026653960346 4.719723851179828 0 0 0
137 1 15.71918732902712 6.288909027273933 3.1470239014617887 0 0 0
138 1 17.293926174418186 7.859203491637403 4.715737029803534 0 0 0
139 1 18.86459729449339 6.287853314305047 3.1457886167985536 0 0 0
140 1 20.437466480647995 7.860638539271302 4.718438201861434 0 0 0
141 1 22.00791387355204 9.433297365948672 3.147311710225853 -1 0 0
142 1 1.5705170536918744 11.005858022832852 4.719793198920636 0 0 0
143 1 3.1424393253012397 9.433999631545323 3.149036305978707 0 0 0
144 1 4.714738658746235 11.006652057249163 4.721312338579733 0 0 0
145 1 6.286977567283795 9.434912122460034 3.1506368491574626 0 0 0
146 1 7.859750618353935 11.007782622294972 4.722581783211726 0 0 0
147 1 9.431255716935896 9.43540430651333 3.1508442804736547 0 0 0
148 1 11.004386824820568 11.00991144915232 4.719401037871539 0 0 0
149 1 12.575498214411537 9.435133316059982 3.149650721663722 0 0 0
150 1 14.146201952779618 11.008444071058772 4.722322646988434 0 0 0
151 1 15.71876106341283 9.43410261241264 3.1464686070391052 0 0 0
152 1 17.292592994293226 11.00541899841946 4.716570178343502 0 0 0
153 1 18.8638288283196 9.433017170037116 3.1458909594485895 0 0 0
154 1 20.436301904806285 11.005291482594695 4.718011233321421 0 0 0
155 1 22.006826230274722 12.577634398110177 3.1464708714840133 -1 0 0
156 1 1.5689470536109522 14.150138707168237 4.7187656012246615 0 0 0
157 1 3.141071318293803 12.578096214198176 3.1478636736586165 0 0 0
158 1 4.712337226907757 14.15099275595339 4.719050745244404 0 0 0
159 1 6.285170830396007 12.578600352587666 3.148316805407989 0 0 0
160 1 7.855464914199962 14.152924210317016 4.716304453358327 0 0 0
161 1 9.429215580684914 12.579637466421389 3.1465607046023982 0 0 0
162 1 11.00086193993957 14.153854746962828 4.713561878683343 0 0 0
163 1 12.574529199068301 12.579637223623413 3.1468923889519638 0 0 0
164 1 14.147785273032868 14.154778413569678 4.70916404710532 0 0 0
165 1 15.718729019475322 12.57774594976814 3.1441496927861268 0 0 0
166 1 17.29175745897954 14.150350413946533 4.714657848057054 0 0 0
167 1 18.863057029486214 12.577507087351659 3.144773152441128 0 0 0
168 1 20.435175133541016 14.149777259969476 4.7172514549510005 0 0 0
169 1 22.006036267689645 15.722060739022412 3.1456793182939227 -1 0 0
170 1 1.5680924834374776 17.295027085297388 4.717969826947364 0 0 0
171 1 3.1399137089763274 15.72279504319684 3.1465270238036505 0 0 0
172 1 4.710554596791223 17.297047555848195 4.716990328136961 0 0 0
173 1 6.283458034007155 15.724035556842377 3.1453391637679875 0 0 0
174 1 7.8527830609780125 17.300701394608016 4.713272944796296 0 0 0
175 1 9.427882357147286 15.725138451105856 3.142349011753559 0 0 0
176 1 10.99969757494199 17.30023439845576 4.7126868743228165 0 0 0
177 1 12.572989930658759 15.725322284898137 3.1408068911562808 0 0 0
178 1 14.146436545893112 17.299175102121485 4.712029970941746 0 0 0
179 1 15.719219117891829 15.724225729646658 3.1398005821166746 0 0 0
180 1 17.293970879646913 17.298586276830168 4.711912295660285 0 0 0
181 1 18.86263194217351 15.722157054044095 3.1436069990675306 0 0 0
182 1 20.435283804266355 17.29493804386645 4.71647599104866 0 0 0
183 1 22.006185470605743 18.866750355964847 3.1453809461337565 -1 0 0
184 1 1.5686697485590877 20.439538140241275 4.718298675702237 0 0 0
185 1 3.1397218067717962 18.867854687576784 3.1459121918061137 0 0 0
186 1 4.712220743147486 20.441375539011002 4.718106634616062 0 0 0
187 1 6.283197204257315 18.869587267452808 3.1446161251051086 0 0 0
188 1 7.856151018030704 20.443017422954725 4.717083819748189 0 0 0
189 1 9.428222096568973 18.86971302796031 3.143525688397484 0 0 0
190 1 11.000969867024242 20.442716587941266 4.716190529916089 0 0 0
191 1 12.57324972955901 18.869079251480663 3.1425297197281163 0 0 0
192 1 14.146084461617574 20.44138066129405 4.715699069043641 0 0 0
193 1 15.718314009601105 18.86797240800645 3.1423569435316208 0 0 0
194 1 17.29121336242948 20.440081083997967 4.7159481611904495 0 0 0
195 1 18.863166889904125 18.86737194724792 3.143298728099763 0 0 0
196 1 20.434843819635724 20.438686951741186 4.7174639910836715 0 0 0
197 1 22.007182226923845 0.0010686161204909173 6.290695770727468 -1 0 0
198 1 1.5706860016270778 1.57383374926417 7.863520442968259 0 0 0
199 1 3.1414925505389615 0.003110484204249348 6.291153434355401 0 0 0
200 1 4.714937893653154 1.5764725402632591 7.86427338620612 0 0 0
201 1 6.285303447318892 0.0052211217237048135 6.291000727315847 0 0 0
202 1 7.858770641598648 1.5782246046057293 7.86434788248942 0 0 0
203 1 9.429543218905309 0.005934666278084037 6.290551038442334 0 0 0
204 1 11.002550023079767 1.5775517235171022 7.864035650690846 0 0 0
205 1 12.573811574714707 0.004549734463491761 6.289662609399826 0 0 0
206 1 14.14646938058173 1.5739986316931849 7.86298426456259 0 0 0
207 1 15.71870138586404 0.0023242116892947065 6.289396409731972 0 0 0
208 1 17.291679956140705 1.5709460349618058 7.86237806998347 0 0 0
209 1 18.863242184020983 0.00039419824673808673 6.289869628800336 0 0 0
210 1 20.436126269977738 1.571622134661267 7.862808839825534 0 0 0
211 1 22.009204949973334 3.144724204530599 6.2912248330468215 -1 0 0
212 1 1.5730585701773698 4.717902673565191 7.864373803951149 0 0 0
213 1 3.143843166098261 3.147162525270954 6.2926035743533975 0 0 0
214 1 4.717911161946304 4.7211696285857885 7.866294566972841 0 0 0
215 1 6.2881529464804835 3.1495892587923096 6.293724974059164 0 0 0
216 1 7.862397448053815 4.724188107905793 7.867950548740145 0 0 0
217 1 9.431825334690476 3.1503470110575083 6.2938636249996645 0 0 0
218 1 11.005084810056537 4.724482063153932 7.868252381395795 0 0 0
219 1 12.574498854988892 3.147990298448101 6.292387901265917 0 0 0
220 1 14.147527089830037 4.716508437249695 7.864214812386631 0 0 0
221 1 15.719389763766888 3.1444651579809992 6.290687763660816 0 0 0
222 1 17.295054524854482 4.711389761664829 7.861170722287226 0 0 0
223 1 18.865114633627325 3.142723187827453 6.2898653411504855 0 0 0
224 1 20.43870102936028 4.7148304354077295 7.862770475682057 0 0 0
225 1 0.001430059117033461 6.288410677062709 6.291074587961758 0 0 0
226 1 1.5737035898278524 7.861909741049703 7.864577258194591 0 0 0
227 1 3.14529181124547 6.291065993436962 6.293466535553377 0 0 0
228 1 4.718744922433861 7.86446593378416 7.866841774462726 0 0 0
229 1 6.291071693006587 6.294647423690031 6.2968525644195825 0 0 0
230 1 7.868115434044445 7.871579740677248 7.873811351075748 0 0 0
231 1 9.434826528048799 6.296245894914366 6.298306112935789 0 0 0
232 1 11.01083242019749 7.87585812698489 7.877843856323685 0 0 0
233 1 12.575061783372936 6.2930515818567985 6.29508789116579 0 0 0
234 1 14.151001104508088 7.856278257405143 7.861921300091275 0 0 0
235 1 15.72144595093434 6.286452790758623 6.289465940162419 0 0 0
236 1 17.30590979122396 7.847437490733036 7.851851421775318 0 0 0
237 1 18.86913748070567 6.284227727587145 6.287120545257234 0 0 0
238 1 20.441241364682444 7.858571863486096 7.861853295055785 0 0 0
239 1 0.0001232971948800318 9.433430109178268 6.291412119037849 0 0 0
240 1 1.571377435833422 11.006012082305725 7.8642650096212074 0 0 0
241 1 3.144520188347258 9.434930160859388 6.2935615590440595 0 0 0
242 1 4.717136336505799 11.007689723937292 7.866866904243708 0 0 0
243 1 6.28974878251514 9.436882785401304 6.296011661060352 0 0 0
244 1 7.8651676412960985 11.010058766115993 7.871479362814525 0 0 0
245 1 9.430868995524662 9.435121651074766 6.297260475038501 0 0 0
246 1 10.996951593335794 11.003923255519776 7.836880304135253 0 0 0
247 1 12.580962052908841 9.43798111634395 6.298796057741277 0 0 0
248 1 14.15895528063457 10.995076378057417 7.876435843912348 0 0 0
249 1 15.723791421816168 9.430514242195574 6.2852310801384705 0 0 0
250 1 17.294489936154008 11.005535106427942 7.860815546701731 0 0 0
251 1 18.86639165845991 9.432431261065974 6.2893108616181825 0 0 0
252 1 20.436909266424742 11.005039031852446 7.86233898864613 0 0 0
253 1 22.007699612396866 12.577623854668577 6.290655187449978 -1 0 0
254 1 1.568281025356427 14.150027568075366 7.863229020396712 0 0 0
255 1 3.1419496537787808 12.578328281501623 6.2920862625545215 0 0 0
256 1 4.710883465453071 14.15198845142528 7.8630862401428 0 0 0
257 1 6.285821102374746 12.57901239388881 6.292538450011929 0 0 0
258 1 7.849005339171152 14.157591859966718 7.856664858191917 0 0 0
259 1 9.427323706143069 12.583427422097179 6.290738661357158 0 0 0
260 1 10.970337607955267 14.183807066686054 7.838409164087881 0 0 0
261 1 12.578659340195909 12.588590932980471 6.300361872782445 0 0 0
262 1 14.17756667608065 14.191723653960333 7.825253296684397 0 0 0
263 1 15.720246391048986 12.577304281607402 6.286563765555261 0 0 0
264 1 17.29583872913525 14.152296820087177 7.857217952201328 0 0 0
265 1 18.864488921579035 12.577359029132147 6.288470562314109 0 0 0
266 1 20.434614409289345 14.148695160163648 7.862306922128334 0 0 0
267 1 22.00633880052688 15.722086886899678 6.290117247680555 -1 0 0
268 1 1.5673076454516617 17.29506936880862 7.862395882359589 0 0 0
269 1 3.139297710849815 15.723380086259228 6.290410567329917 0 0 0
270 1 4.70890276306946 17.29870449879022 7.8606805061257115 0 0 0
271 1 6.280361248234349 15.72694096707624 6.287228073739742 0 0 0
272 1 7.851296533406477 17.30308198114441 7.857803211124258 0 0 0
273 1 9.41902548176291 15.736083765919558 6.277917585220803 0 0 0
274 1 10.998234324101965 17.30610947394998 7.8565067978749425 0 0 0
275 1 12.571748457235909 15.733122291997974 6.2798403545296955 0 0 0
276 1 14.147905491874571 17.305830492421 7.854700909475715 0 0 0
277 1 15.729171460756202 15.735317207677143 6.275171506926773 0 0 0
278 1 17.291656606882764 17.296388385269548 7.85959058068343 0 0 0
279 1 18.865361508141657 15.723608873149546 6.2871275755845515 0 0 0
280 1 20.434057824532708 17.29389128739484 7.861889325262904 0 0 0
281 1 22.006075006545714 18.866769191390148 6.290018662868573 -1 0 0
282 1 1.5684612329056928 20.439359618373597 7.862749059986177 0 0 0
283 1 3.1393238171009052 18.86872908574277 6.289834606809071 0 0 0
284 1 4.7120274986488955 20.442016441345604 7.862554286407932 0 0 0
285 1 6.282442043172466 18.871400745958532 6.288574482944064 0 0 0
286 1 7.85568531372795 20.444366465010788 7.861565658276743 0 0 0
287 1 9.426855906081101 18.873793546193145 6.286766277168946 0 0 0
288 1 11.000943053460881 20.44406606606252 7.861045331194722 0 0 0
289 1 12.572988654632402 18.87281902820319 6.285744298180198 0 0 0
290 1 14.145890604915492 20.441956396154296 7.8606159723533064 0 0 0
291 1 15.719933045799618 18.871447454211424 6.285979764677756 0 0 0
292 1 17.29040419999691 20.43835522754902 7.861673778770974 0 0 0
293 1 18.863162963178233 18.867178500654806 6.288706465077048 0 0 0
294 1 20.434298933717503 20.437768612311842 7.862406398077569 0 0 0
295 1 22.006822390854893 0.0003129111056493094 9.435027525014174 -1 0 0
296 1 1.5702393163368913 1.573059416569191 11.007551141495446 0 0 0
297 1 3.1412847207474868 0.0028085083020039374 9.435300533787393 0 0 0
298 1 4.714431454554135 1.575623531735214 11.007899993807007 0 0 0
299 1 6.285436168589022 0.00514796367829008 9.43556765675962 0 0 0
300 1 7.85880178940845 1.5772791859363842 11.008317308569803 0 0 0
301 1 9.429299945158096 0.005785310860791154 9.435027596234344 0 0 0
302 1 11.002229522942557 1.575167529802306 11.007922000099596 0 0 0
303 1 12.57367795661816 0.002950763393715286 9.434699220343456 0 0 0
304 1 14.14637608623336 1.5703405165119955 11.007396395916416 0 0 0
305 1 15.718100955097201 22.008830974687655 9.434602529308938 0 -1 0
306 1 17.29140352143565 1.5687166011775429 11.007269052267219 0 0 0
307 1 18.86266882799248 22.00822984036415 9.434764969068302 0 -1 0
308 1 20.435723563613827 1.570421331463382 11.007304182401116 0 0 0
309 1 22.009313400127866 3.1440568880174506 9.435511430005098 -1 0 0
310 1 1.572591197159437 4.717081023465232 11.008188375330183 0 0 0
311 1 3.143992594335257 3.1470337347659174 9.436362762323778 0 0 0
312 1 4.717301578041298 4.7204153834601685 11.00905879006244 0 0 0
313 1 6.288746327197224 3.15020535037359 9.437622554665293 0 0 0
314 1 7.863257805743829 4.725046255499136 11.010870947171169 0 0 0
315 1 9.431937055856917 3.1510759418884713 9.437462601832662 0 0 0
316 1 11.00448875042858 4.721755311224959 11.009995178144203 0 0 0
317 1 12.575234853561803 3.147603882066266 9.43687174369462 0 0 0
318 1 14.14921668873562 4.712763114186109 11.008209561365554 0 0 0
319 1 15.720445195544944 3.140884807405441 9.43519379642042 0 0 0
320 1 17.295298140963418 4.71000245476667 11.008075604621851 0 0 0
321 1 18.86536161287175 3.1414250718864074 9.434993828563396 0 0 0
322 1 20.438524613939734 4.713731348282708 11.007826087331866 0 0 0
323 1 0.0019048557390314914 6.287958386975859 9.435898700735839 0 0 0
324 1 1.5734965425594465 7.86149119768621 11.008700246524949 0 0 0
325 1 3.1465309636958048 6.291640465286469 9.437703235758494 0 0 0
326 1 4.720499225771062 7.866013642459616 11.010940552349323 0 0 0
327 1 6.293428133693761 6.296593378900616 9.440959926247865 0 0 0
328 1 7.873937715609779 7.877097039528026 11.016720612837641 0 0 0
329 1 9.436868971387714 6.302674692483185 9.442071095287046 0 0 0
330 1 11.012413585172201 7.863081405613298 11.015773201375877 0 0 0
331 1 12.579385525535802 6.29812546212758 9.440791375095964 0 0 0
332 1 14.161906205613892 7.852965987535973 11.00572691152207 0 0 0
333 1 15.726282881542634 6.2770343649330425 9.433224853951486 0 0 0
334 1 17.301136760349127 7.849725255199869 11.009368456257507 0 0 0
335 1 18.86900147791347 6.283640518370686 9.434637460799838 0 0 0
336 1 20.440224448878176 7.857480856194736 11.008079333753097 0 0 0
337 1 0.0011937527436927096 9.432675118250733 9.435834344835246 0 0 0
338 1 1.570401083391427 11.005788503966553 11.008423273572093 0 0 0
339 1 3.145657832654842 9.435129421146051 9.437704732198101 0 0 0
340 1 4.715171884031365 11.008848364423999 11.011256302314196 0 0 0
341 1 6.293769679090362 9.436222723210404 9.438558040934767 0 0 0
342 1 7.839789384844205 11.005477021076134 11.007521461681668 0 0 0
343 1 9.442649167740885 9.44512739010572 9.446713959145146 0 0 0
344 1 20.432644133059963 20.43661281132181 20.43839386359984 0 0 0
345 1 12.611589269167947 9.438058419836697 9.433668026875495 0 0 0
346 1 14.369330545672852 10.922308458953026 10.990783964764162 0 0 0
347 1 15.755604622472699 9.391261182375594 9.403617742321838 0 0 0
348 1 17.280591549487912 10.99421850951656 11.0023809562986 0 0 0
349 1 18.871912896755173 9.42802308734229 9.433281495754786 0 0 0
350 1 20.43416717116826 11.00314251594536 11.006532192941771 0 0 0
351 1 22.00598117635178 12.57677880401202 9.435405173509533 -1 0 0
352 1 1.5671196821048043 14.14964964757353 11.007461731289718 0 0 0
353 1 3.1414859275153604 12.578844953732405 9.436353623631732 0 0 0
354 1 4.7109809711140045 14.1517494866263 11.00838256595998 0 0 0
355 1 6.287529582945022 12.58207756665811 9.436474522892494 0 0 0
356 1 7.8467909079399085 14.169150526249775 10.988520964916217 0 0 0
357 1 9.418785051618672 12.601488400883579 9.42357526942312 0 0 0
358 1 10.968845985694204 14.224798953252241 10.97019994817354 0 0 0
359 1 12.589626406889986 12.660193043196848 9.21221114472096 0 0 0
360 1 14.147946281680564 14.145525241426103 10.969262470320675 0 0 0
361 1 15.704752579851213 12.587799972252755 9.422016277377564 0 0 0
362 1 17.282414063754672 14.144861748576494 11.000094483107526 0 0 0
363 1 18.858739564111236 12.574331574168994 9.434848538263154 0 0 0
364 1 20.431448657706255 14.147664720544963 11.00556940282337 0 0 0
365 1 22.004840247790384 15.721427295123714 9.434609537426105 -1 0 0
366 1 1.5659437642595764 17.29458943372859 11.006776747883123 0 0 0
367 1 3.138121917852828 15.723615956361298 9.435002312536847 0 0 0
368 1 4.709042663801857 17.297793383881164 11.006610646908 0 0 0
369 1 6.2766504150743865 15.730996365632869 9.429959258155204 0 0 0
370 1 7.853299352145185 17.301021977063183 11.00618789756836 0 0 0
371 1 9.416781315344622 15.737791378641065 9.42287649804508 0 0 0
372 1 10.996213776748458 17.303193102285572 11.001590308129785 0 0 0
373 1 12.575442039702457 15.730218436191073 9.41892838800523 0 0 0
374 1 14.140375645865134 17.284892056143324 11.001624211575345 0 0 0
375 1 15.719329903357085 15.726749489727196 9.42986844465967 0 0 0
376 1 17.286024563221755 17.289790740577082 11.00600489050333 0 0 0
377 1 18.861398076287887 15.720788407524703 9.433317062143225 0 0 0
378 1 20.43136534646044 17.29201117854385 11.006406947293584 0 0 0
379 1 22.004942573091746 18.8658940346433 9.43464206287655 -1 0 0
380 1 1.567721941752777 20.438676658943574 11.006990721930997 0 0 0
381 1 3.138898804896811 18.86835034581265 9.43464561728023 0 0 0
382 1 4.711562181955194 20.441308375775503 11.00705159360133 0 0 0
383 1 6.2822529596705525 18.87154034488388 9.43402356407871 0 0 0
384 1 7.855975617541363 20.442441848128333 11.00717111575916 0 0 0
385 1 9.425684109412023 18.87440944763986 9.431766886846669 0 0 0
386 1 11.000197725737973 20.44090933826404 11.006031892711295 0 0 0
387 1 12.572867660141801 18.87011020194126 9.431825765514656 0 0 0
388 1 14.144205612837919 20.43523131968577 11.00584123846051 0 0 0
389 1 15.716887451345432 18.866338395440472 9.43352717721604 0 0 0
390 1 17.288696145301408 20.434821787003198 11.006579096530924 0 0 0
391 1 18.86092150721027 18.864592348648294 9.434359063955792 0 0 0
392 1 20.433192442155114 20.436293581425407 11.006754236145888 0 0 0
393 1 22.006077487097713 22.008884629473304 12.579198712537275 -1 -1 0
394 1 1.5694071025905822 1.5721303867466254 14.151732792584694 0 0 0
395 1 3.140607844847088 0.001872859763511106 12.579449423607635 0 0 0
396 1 4.7135113243139255 1.5740063414377663 14.15186765304502 0 0 0
397 1 6.284809743394032 0.0035689043331680733 12.57955735023598 0 0 0
398 1 7.857840375698159 1.5740201852928017 14.151908473708023 0 0 0
399 1 9.429235295763172 0.0023307521188796966 12.579392919097206 0 0 0
400 1 11.001685228553484 1.5709092077296136 14.15184068036726 0 0 0
401 1 12.573145747238014 22.00763384124623 12.57884612231427 0 -1 0
402 1 14.146039018524364 1.5674733419772904 14.151773081482329 0 0 0
403 1 15.717043501677486 22.005268719131216 12.57853860666444 0 -1 0
404 1 17.29051359857353 1.5673280874629358 14.151531718762243 0 0 0
405 1 18.86178806896374 22.0065060186226 12.578942469234992 0 -1 0
406 1 20.434947391446098 1.5695491309359997 14.151650186251976 0 0 0
407 1 22.00863225782386 3.1431077801531777 12.579898309415551 -1 0 0
408 1 1.571167535364001 4.716035831842243 14.152378859055345 0 0 0
409 1 3.1430386680505094 3.145840847891519 12.58001634602647 0 0 0
410 1 4.715082348814925 4.717962497048345 14.152429499686155 0 0 0
411 1 6.287446403992417 3.147932559958316 12.580185563529028 0 0 0
412 1 7.859274927702245 4.718053296218732 14.15279035074195 0 0 0
413 1 9.431497552727235 3.148315858872602 12.580879896126508 0 0 0
414 1 11.002284931505763 4.71555126376112 14.154260252340185 0 0 0
415 1 12.575040243426553 3.1418931496691367 12.580879299927126 0 0 0
416 1 14.149302442934694 4.708362195354679 14.155407708054737 0 0 0
417 1 15.72001127793022 3.1387529949440007 12.58011863784047 0 0 0
418 1 17.294282914116547 4.709019647590071 14.154201558535442 0 0 0
419 1 18.86486380211834 3.1400946956092732 12.58010931892747 0 0 0
420 1 20.437525814968993 4.713100021189752 14.152853264918594 0 0 0
421 1 0.0008700733859392257 6.287061113999739 12.580427501063188 0 0 0
422 1 1.570703219682441 7.860473314646638 14.152765779607568 0 0 0
423 1 3.144614503717489 6.2901522287253675 12.580565616278031 0 0 0
424 1 4.713886527572551 7.861676505637916 14.15382170771399 0 0 0
425 1 6.290187960494342 6.293482558395501 12.580868684956314 0 0 0
426 1 7.857191904363237 7.8595459210806276 14.156075921252 0 0 0
427 1 9.4360672319115 6.300798414714207 12.584438126097846 0 0 0
428 1 10.999561521980146 7.862951173464536 14.161944059890617 0 0 0
429 1 12.57938296985086 6.279586430377601 12.584867551627301 0 0 0
430 1 14.158204899815233 7.8448933009339035 14.164501528099708 0 0 0
431 1 15.724507391665801 6.276740813635395 12.5828398948533 0 0 0
432 1 17.303079674051695 7.846730420771494 14.162012077375271 0 0 0
433 1 18.868343659793748 6.282586037393064 12.581364311319724 0 0 0
434 1 20.438691576892833 7.857668802978125 14.153180718142481 0 0 0
435 1 22.008736358142034 9.43225548952839 12.579917591261754 -1 0 0
436 1 1.5683487317403773 11.005259522039179 14.152331405194921 0 0 0
437 1 3.1435687915622097 9.434230282562575 12.581544051135939 0 0 0
438 1 4.711795824151864 11.00696893419002 14.154218244100203 0 0 0
439 1 6.292484513485329 9.437358164090769 12.5863858076238 0 0 0