LAMMPS data file via write_data, version 2 Aug 2023, timestep = 20, units = metal

689 atoms
3 atom types

0 22.009546999999998 xlo xhi
0 22.009546999999998 ylo yhi
0 22.009546999999998 zlo zhi

Masses

1 183.84
2 1.008
3 4.0026

Atoms # atomic

1 1 22.00918892725512 3.6077312932940344e-05 0.00038928096061595867 -1 0 0
2 1 1.5715182230584661 1.571763576537249 1.572109094015871 0 0 0
3 1 3.143365295461045 4.59708924016401e-05 0.0005889575483810686 0 0 0
4 1 4.715624657408151 1.571761543853607 1.5721092360700655 0 0 0
5 1 6.287803815592444 8.166680904656889e-05 0.0006016296967589615 0 0 0
6 1 7.86017739443732 1.5717251783613866 1.5721091793593338 0 0 0
7 1 9.432519438738408 0.00011578606336571368 0.0005639660935493411 0 0 0
8 1 11.004909877617152 1.5716851528036304 1.5721089541443327 0 0 0
9 1 12.577275406640487 0.00012760700319774365 0.0005064164044021724 0 0 0
10 1 14.149614649627273 1.571643963294099 1.5721087616556941 0 0 0
11 1 15.721835142938524 0.00010881845051657863 0.0004289942416870094 0 0 0
12 1 17.294059346042708 1.5716303143226158 1.5721088400766845 0 0 0
13 1 18.865935715419095 6.678885578298511e-05 0.0003978571429045814 0 0 0
14 1 20.43780937151048 1.5717894522436129 1.5721088789307611 0 0 0
15 1 5.856284630464188e-06 3.143734911420551 0.00046978174173469304 0 0 0
16 1 1.5720304802733218 4.716005320996801 1.57210873813216 0 0 0
17 1 3.1432209463343623 3.1434357100890193 0.0008760350856155882 0 0 0
18 1 4.715549189892248 4.7156396606525615 1.5721091747074811 0 0 0
19 1 6.287715705725022 3.1433789326279133 0.0008548094431442344 0 0 0
20 1 7.860131691034983 4.715407790375599 1.572109090001291 0 0 0
21 1 9.432509351983349 3.143259845363477 0.0007966586481296512 0 0 0
22 1 11.00500002681236 4.715192243390185 1.5721088749689416 0 0 0
23 1 12.577416663154237 3.143159996212843 0.0007713891899060303 0 0 0
24 1 14.150011577800834 4.715040103368289 1.5721087496204753 0 0 0
25 1 15.722239365624679 3.143063777446501 0.0007369434164957627 0 0 0
26 1 17.294849537072228 4.71501654620876 1.5721081529606593 0 0 0
27 1 18.86644410073055 3.1432831076921905 0.0005614387911670002 0 0 0
28 1 20.438335763450034 4.715716814711395 1.5721085644904575 0 0 0
29 1 0.000622422193806913 6.288031981263202 0.0004391918876498759 0 0 0
30 1 1.572507804576202 7.860385371340391 1.5721083123584365 0 0 0
31 1 3.143948824017241 6.288224342313089 0.0005873126612521256 0 0 0
32 1 4.7162314060700785 7.860560531890979 1.5721087931849689 0 0 0
33 1 6.287728229721507 6.287697717156201 0.0014079137709776398 0 0 0
34 1 7.860551977874624 7.860366203878008 1.5721086837988496 0 0 0
35 1 9.432543648068888 6.287255211199602 0.001381506891442683 0 0 0
36 1 11.005117046241127 7.859889167701278 1.5721079624562035 0 0 0
37 1 12.577761516929677 6.287045068382792 0.0015414864236921707 0 0 0
38 1 14.150587534805402 7.859573888926179 1.5721063913919668 0 0 0
39 1 15.723282330071571 6.2867120606862 0.0016250267500868593 0 0 0
40 1 17.295368508711654 7.859639756833848 1.5721077425294183 0 0 0
41 1 18.867044366435714 6.287480372179799 0.0007219022282815352 0 0 0
42 1 20.438803203253574 7.860095727194789 1.5721080667566734 0 0 0
43 1 0.0009928357017138473 9.432484475390904 0.00043942820602195244 0 0 0
44 1 1.5726893915571272 11.004746858636993 1.572108119632998 0 0 0
45 1 3.1443394964275733 9.432602111944504 0.00043602600060029515 0 0 0
46 1 4.71638455647008 11.004743688351356 1.57210852182987 0 0 0
47 1 6.288427340563366 9.432766928930443 0.00045456602971600776 0 0 0
48 1 7.860700287093978 11.00475458726637 1.5721089027139794 0 0 0
49 1 9.433065039819098 9.43268470726064 0.0007025302503789662 0 0 0
50 1 11.005352629498848 11.004770152869112 1.5721058069704856 0 0 0
51 1 12.578167858831003 9.43233474594124 0.0019141826358673112 0 0 0
52 1 14.151075598175813 11.00476548133324 1.572106294064687 0 0 0
53 1 15.72381451646024 9.431960640345883 0.0016994170063670375 0 0 0
54 1 17.295632665521538 11.004748222254566 1.5721073113125061 0 0 0
55 1 18.867459015932983 9.432250216058891 0.0008063403092605173 0 0 0
56 1 20.438999527795676 11.004745412779878 1.5721078270276168 0 0 0
57 1 0.0010064214612814455 12.577015602656424 0.00043699155533526623 0 0 0
58 1 1.572516345742775 14.149123589850928 1.5721082275692269 0 0 0
59 1 3.1443434917456154 12.576891932296169 0.000434533045682379 0 0 0
60 1 4.71621533509469 14.14895440677846 1.572108675221594 0 0 0
61 1 6.288423522842102 12.576738512684159 0.0004626950986911761 0 0 0
62 1 7.860531772918443 14.14918943238459 1.5721085812728504 0 0 0
63 1 9.433068834375236 12.576871237445458 0.0007265238241672506 0 0 0
64 1 11.005127321072694 14.149713875344384 1.5721078901759695 0 0 0
65 1 12.578189537530214 12.577255746028843 0.0019477936752891228 0 0 0
66 1 14.150643942052431 14.150019486631942 1.5721062971498914 0 0 0
67 1 15.723845563635267 12.57758541076522 0.0017164819270339277 0 0 0
68 1 17.295424528159298 14.149900576879519 1.5721076333355577 0 0 0
69 1 18.867483817613756 12.577254968215726 0.0008114649160208629 0 0 0
70 1 20.438835766917528 14.149418474576862 1.572107983445073 0 0 0
71 1 0.0006557225561046976 15.721499319732391 0.00043567712120273945 0 0 0
72 1 1.5720394008641332 17.29355052389585 1.5721086382583351 0 0 0
73 1 3.1439484068310093 15.72130408847659 0.0005818047294104714 0 0 0
74 1 4.715507473666217 17.293954859052715 1.572109064089679 0 0 0
75 1 6.287698031764136 15.72188070282716 0.001435930832954888 0 0 0
76 1 7.860082100645789 17.294260176357724 1.5721089832249278 0 0 0
77 1 9.432532145507228 15.7224015308542 0.0014441844117521218 0 0 0
78 1 11.005012527893868 17.294523226144882 1.5721087180808182 0 0 0
79 1 12.577810391612646 15.722632232168086 0.0015972812294769649 0 0 0
80 1 14.150086918382803 17.29465813806167 1.5721085976298368 0 0 0
81 1 15.723370035817625 15.722921951455415 0.001656992731975582 0 0 0
82 1 17.29493510941217 17.294624016262734 1.5721080280984678 0 0 0
83 1 18.867111792671405 15.722086796900856 0.0007329734638018296 0 0 0
84 1 20.43838740852403 17.293863153859782 1.5721084632079754 0 0 0
85 1 3.711056307647796e-05 18.865853175581517 0.0004690522075393195 0 0 0
86 1 1.5715198898498524 20.43785463334041 1.5721090629715315 0 0 0
87 1 3.1432061286341666 18.866165211968234 0.0008774325124658332 0 0 0
88 1 4.715599611981161 20.43790593151117 1.5721091902972117 0 0 0
89 1 6.287670248422296 18.86629365222392 0.0008765394820925928 0 0 0
90 1 7.860148939615531 20.43801241415199 1.5721091030130703 0 0 0
91 1 9.432492227506673 18.86648849519029 0.0008397340415648034 0 0 0
92 1 11.004913399364053 20.438095674922934 1.5721088659099842 0 0 0
93 1 12.577462380013907 18.866610462884406 0.0008153270233965526 0 0 0
94 1 14.149652942568576 20.438131329774926 1.5721086911609818 0 0 0
95 1 15.72231552284616 18.86665892375695 0.0007599312939546116 0 0 0
96 1 17.294101134770056 20.4380860609779 1.5721087853963345 0 0 0
97 1 18.866504108165422 18.866359985527605 0.0005663505146758516 0 0 0
98 1 20.437834758586288 20.4378493591751 1.5721088364932458 0 0 0
99 1 22.009189111471642 3.6113099731014155e-05 3.1438287589967477 -1 0 0
100 1 1.5709878316148953 1.5715704408474764 4.715300343473183 0 0 0
101 1 3.1433654966921796 4.600153159144387e-05 3.1436294743577453 0 0 0
102 1 4.71514873379177 1.5714164166108324 4.715038174603347 0 0 0
103 1 6.287803929979864 8.172720699735515e-05 3.1436167905237213 0 0 0
104 1 7.859999422924293 1.5714349826044207 4.7151254054293315 0 0 0
105 1 9.432519681331549 0.00011587952202222893 3.1436541562801894 0 0 0
106 1 11.004939734076826 1.5714433605723712 4.715234116532952 0 0 0
107 1 12.577275732638883 0.00012770309211800962 3.1437112491918633 0 0 0
108 1 14.149743161862729 1.571387484188739 4.715390691638161 0 0 0
109 1 15.721835308030364 0.00010890447482402466 3.1437885668533405 0 0 0
110 1 17.294223082150584 1.5713280635260478 4.715488360407755 0 0 0
111 1 18.86593588795579 6.683527732193452e-05 3.143819889638503 0 0 0
112 1 20.437470350929868 1.571670798550917 4.715774747268394 0 0 0
113 1 6.025818038022489e-06 3.1437348620962964 3.1437479239358637 0 0 0
114 1 1.5714778427197216 4.715661220228401 4.715258486947271 0 0 0
115 1 3.14322126073552 3.143435842867397 3.1433424402318315 0 0 0
116 1 4.714350606106424 4.714535029333965 4.7137149489668 0 0 0
117 1 6.2877159770426685 3.143379125019996 3.1433637154420238 0 0 0
118 1 7.859715069592295 4.7145216203275355 4.714058727990608 0 0 0
119 1 9.43250970303649 3.1432600529900276 3.1434214094364794 0 0 0
120 1 11.005150039599013 4.714373938944367 4.714104393946388 0 0 0
121 1 12.577416893609758 3.1431603374486543 3.143446274289087 0 0 0
122 1 14.15064683767708 4.714115886410229 4.7140348577842985 0 0 0
123 1 15.722239289111096 3.1430640894859065 3.1434807137610425 0 0 0
124 1 17.295664441843424 4.71412982563349 4.7143836805945805 0 0 0
125 1 18.866444431806638 3.1432828973279086 3.143655833593093 0 0 0
126 1 20.438359832037346 4.7154226178979295 4.715454106343853 0 0 0
127 1 0.0006225501770612835 6.288031807398078 3.143777599218672 0 0 0
128 1 1.5722692143956085 7.86029749111912 4.715534664876974 0 0 0
129 1 3.1439491800820334 6.288224274147868 3.1436302435876726 0 0 0
130 1 4.715829736036384 7.860492224610507 4.715174990616992 0 0 0
131 1 6.287728557301851 6.287697737436973 3.1428100822141816 0 0 0
132 1 7.8600953756833265 7.859679186434792 4.713254419727044 0 0 0
133 1 9.432543425311492 6.287254961807933 3.142836099202875 0 0 0
134 1 11.005339216922456 7.858995540725764 4.712793031252463 0 0 0
135 1 12.577761137477788 6.287045162223748 3.1426753371284626 0 0 0
136 1 14.15221745223271 7.8582941219460825 4.711615952341474 0 0 0
137 1 15.723283801742449 6.2867110270543956 3.1425885252631973 0 0 0
138 1 17.296265655841644 7.859164673499655 4.714086574598944 0 0 0
139 1 18.867044733054115 6.287480367972005 3.143494489704448 0 0 0
140 1 20.438993835376746 7.859947435839335 4.715319520628357 0 0 0
141 1 0.0009931355225262397 9.432484392842097 3.1437767024283625 0 0 0
142 1 1.5725433488100102 11.004747738697086 4.715576919715647 0 0 0
143 1 3.1443399040783726 9.432602070757325 3.143780610967915 0 0 0
144 1 4.716074020351702 11.004741405172863 4.715392069558534 0 0 0
145 1 6.288427615277506 9.432766977900108 3.143763592163159 0 0 0
146 1 7.860833160268086 11.004762230729908 4.716117174284941 0 0 0
147 1 9.433063714190398 9.432683960023791 3.1435126538917726 0 0 0
148 1 11.005931267810915 11.004805076380512 4.71496132526326 0 0 0
149 1 12.578168430589297 9.43233405546476 3.1422951488560917 0 0 0
150 1 14.153001043515733 11.0048109283844 4.711693969760711 0 0 0
151 1 15.723815915078005 9.431960726381034 3.142513896129014 0 0 0
152 1 17.296597170138373 11.004774729255972 4.713986175052795 0 0 0
153 1 18.867459619339897 9.432250251320971 3.143408934297165 0 0 0
154 1 20.439251964386933 11.004752361646696 4.715268188697699 0 0 0
155 1 0.0010067262620979125 12.577015753174352 3.1437790580633074 0 0 0
156 1 1.572304237223055 14.149207093105012 4.715547999007849 0 0 0
157 1 3.1443438982549408 12.576892073072235 3.1437819952574575 0 0 0
158 1 4.715856691524524 14.149009921139688 4.715172951199228 0 0 0
159 1 6.288423794923231 12.576738658671431 3.143755344350682 0 0 0
160 1 7.860109865001314 14.14989516518401 4.713190076830717 0 0 0
161 1 9.433067514467442 12.57687227125763 3.1434885575229714 0 0 0
162 1 11.005358035782322 14.150675014807517 4.712699027720561 0 0 0
163 1 12.578190124660162 12.577256750296751 3.1422614441195136 0 0 0
164 1 14.152284510852201 14.151380114053374 4.711538309018165 0 0 0
165 1 15.723846990620777 12.577585562991626 3.142496726885385 0 0 0
166 1 17.29633128041266 14.150417570679577 4.714058691030436 0 0 0
167 1 18.867484444562653 12.57725505390038 3.143403691719444 0 0 0
168 1 20.439041284656465 14.149578143440316 4.715318690879003 0 0 0
169 1 0.0006558683219306738 15.721499573353238 3.1437809206347445 0 0 0
170 1 1.5715154903323554 17.29387821896059 4.715273525129429 0 0 0
171 1 3.143948769151935 15.72130425604211 3.1436355094199495 0 0 0
172 1 4.714345750083687 17.295040825173263 4.713696636749252 0 0 0
173 1 6.287698363510005 15.721880841956835 3.1427817852411386 0 0 0
174 1 7.8597024518521215 17.295160133509103 4.713970073143077 0 0 0
175 1 9.432531930892864 15.722402003558594 3.142773236165029 0 0 0
176 1 11.005190944789339 17.295386656842624 4.7139925827365206 0 0 0
177 1 12.577810050990673 15.722632402057881 3.142619255502444 0 0 0
178 1 14.150730661607698 17.29561595648247 4.713967563767222 0 0 0
179 1 15.723371534561423 15.722923181776146 3.1425562841907717 0 0 0
180 1 17.295746830413915 17.29551246772768 4.714364973098335 0 0 0
181 1 18.867112187210108 15.722086918273915 3.143483180977697 0 0 0
182 1 20.438423598295934 17.294150787394216 4.715453086051244 0 0 0
183 1 3.729745558464268e-05 18.8658532924185 3.143748521405248 0 0 0
184 1 1.5709981521999672 20.438016851403646 4.715304052819655 0 0 0
185 1 3.14320646899436 18.86616514125404 3.1433409157719243 0 0 0
186 1 4.7151373201414035 20.438221894483053 4.715028708468095 0 0 0
187 1 6.287670536367787 18.86629357471827 3.143341810865259 0 0 0
188 1 7.85998762913441 20.43830011335333 4.715093263888463 0 0 0
189 1 9.432492555525451 18.866488490754396 3.1433780237709703 0 0 0
190 1 11.00495421191555 20.438365427509797 4.715188314254471 0 0 0
191 1 12.577462615834568 18.86661032583408 3.143402039121735 0 0 0
192 1 14.149783530322816 20.438403573103876 4.715356808540466 0 0 0
193 1 15.722315477453641 18.866658783004855 3.1434575014098716 0 0 0
194 1 17.294263141449775 20.438373365696087 4.715477481433119 0 0 0
195 1 18.866504468475515 18.866360307677965 3.1436507480226146 0 0 0
196 1 20.437495440201563 20.43793807508286 4.715776143793263 0 0 0
197 1 22.008680122211857 8.629317058524558e-06 6.2877835080604685 -1 0 0
198 1 1.5703985844975095 1.5713882494365767 7.859561129742138 0 0 0
199 1 3.142539625791856 1.2641491283253868e-05 6.2870440028655485 0 0 0
200 1 4.714078235607444 1.5704515556735235 7.858741735494508 0 0 0
201 1 6.287327658946062 5.181506553335906e-05 6.286985822383387 0 0 0
202 1 7.859572492322258 1.5704831599552465 7.858963023743546 0 0 0
203 1 9.432430877660723 0.00010790105093388449 6.2871265601101625 0 0 0
204 1 11.004957915626798 1.5707112776436003 7.859189046234051 0 0 0
205 1 12.577377442936035 0.00012765448146000193 6.28735755313067 0 0 0
206 1 14.14974047533754 1.57074755498106 7.859730300497868 0 0 0
207 1 15.721936980304763 8.833738076202326e-05 6.287667546921422 0 0 0
208 1 17.293545834541913 1.5714975325831066 7.860280703406109 0 0 0
209 1 18.86546786085714 3.346325383013861e-05 6.288055686904285 0 0 0
210 1 20.436884134426638 1.5716543720630842 7.860112490588792 0 0 0
211 1 22.008722208663674 3.1433450310111977 6.287451090234315 -1 0 0
212 1 1.5696663367833301 4.714651015366366 7.858834620797461 0 0 0
213 1 3.1417083488211324 3.142273471062561 6.286112609022208 0 0 0
214 1 4.710273520981721 4.710715500571784 7.855030141057461 0 0 0
215 1 6.286684091102863 3.1419093720055056 6.286045585753619 0 0 0
216 1 7.857933585201533 4.710722193755865 7.856216187617109 0 0 0
217 1 9.432300257978042 3.142068740976643 6.286327886012003 0 0 0
218 1 11.005630646882395 4.7114151873761125 7.8564497785434515 0 0 0
219 1 12.577767185394803 3.142057428514469 6.286516311895047 0 0 0
220 1 14.153178998680145 4.710252812105055 7.856319337241556 0 0 0
221 1 15.723089444932878 3.141705798161492 6.286587631688271 0 0 0
222 1 17.2952999594094 4.714214153655981 7.859279373357645 0 0 0
223 1 18.866082120562073 3.1431149023723406 6.287650142445453 0 0 0
224 1 20.437542495819006 4.715228168540251 7.85971971878235 0 0 0
225 1 0.0002709946245427248 6.287780455126999 6.287460518939489 0 0 0
226 1 1.5714212274200583 7.860225743046913 7.859605520355411 0 0 0
227 1 3.1425108637328365 6.287492176935802 6.286620439850571 0 0 0
228 1 4.713184518535196 7.859642956271582 7.858148700407722 0 0 0
229 1 6.284361703296629 6.284310149361449 6.282285998508318 0 0 0
230 1 7.8528105001153055 7.851417739013094 7.847119982351257 0 0 0
231 1 9.432090233322867 6.284574020069108 6.283600865962639 0 0 0
232 1 11.006663964240785 7.853851387583615 7.849383604428996 0 0 0
233 1 12.579320418445354 6.284517415967292 6.2831498343445435 0 0 0
234 1 14.163947749528633 7.847550907813037 7.845987815832353 0 0 0
235 1 15.726903135074894 6.283233973985001 6.282983712679051 0 0 0
236 1 17.29921086729214 7.857783994550008 7.857178228390749 0 0 0
237 1 18.86793250608395 6.28675963538008 6.286682406614351 0 0 0
238 1 20.439248957317396 7.859750726565529 7.859418380330437 0 0 0
239 1 0.0009433899312610862 9.432401238226415 6.287415331494056 0 0 0
240 1 1.5720492793687444 11.004744903434084 7.859482567890963 0 0 0
241 1 3.143673990540932 9.432501175436363 6.287273966627786 0 0 0
242 1 4.714748179710946 11.00471012683567 7.858532141602518 0 0 0
243 1 6.287950679080343 9.433122785513842 6.287249126481731 0 0 0
244 1 7.862716699602356 11.004670859069652 7.8626808565578274 0 0 0
245 1 9.433390210441026 9.43177830085237 6.286009635809058 0 0 0
246 1 11.010208534229825 11.004777748736984 7.86093441109309 0 0 0
247 1 12.58165313434301 9.430785389417391 6.279584915303845 0 0 0
248 1 14.16161731474373 11.004836209461725 7.849112683959307 0 0 0
249 1 15.726971517340399 9.430925296605041 6.283349936507164 0 0 0
250 1 17.29969876934285 11.004822129175015 7.856706826932698 0 0 0
251 1 18.868569288744215 9.4319891088835 6.286406827766406 0 0 0
252 1 20.439789573931165 11.004771711974366 7.859224984992206 0 0 0
253 1 0.0009809096983266416 12.577106700144302 6.28742359057458 0 0 0
254 1 1.5715447751932945 14.149253976783957 7.859632529495193 0 0 0
255 1 3.1437196294561787 12.576976772409644 6.287279293399255 0 0 0
256 1 4.713358788516641 14.149762644205888 7.858168446182483 0 0 0
257 1 6.288000950810555 12.576335395061788 6.2872420994042075 0 0 0
258 1 7.852909417485071 14.158060731000614 7.847014967648205 0 0 0
259 1 9.433412047856246 12.577790763603641 6.285960678810667 0 0 0
260 1 11.006602704920814 14.155760267243242 7.849295130382077 0 0 0
261 1 12.581666210886228 12.578922969779683 6.279488153687956 0 0 0
262 1 14.16392147121362 14.162108949129076 7.845922171884675 0 0 0
263 1 15.726997193757498 12.578728810624412 6.283317714134143 0 0 0
264 1 17.29923845226959 14.151814797117845 7.857176472034804 0 0 0
265 1 18.86860736332929 12.577566189073067 6.286397021668798 0 0 0
266 1 20.439326418848278 14.149788941438812 7.859427145328963 0 0 0
267 1 0.00034977915813630195 15.721741669261085 6.287479514321453 0 0 0
268 1 1.569778199668405 17.29482530305876 7.8588730155827875 0 0 0
269 1 3.1425979589697546 15.721994775799192 6.286647466217126 0 0 0
270 1 4.710383225167712 17.29877213420595 7.855009596103434 0 0 0
271 1 6.284423487140068 15.72523885634211 6.282219182482915 0 0 0
272 1 7.858027198103172 17.29889044547349 7.856089927537187 0 0 0
273 1 9.432139231613778 15.72512031129026 6.283447105219262 0 0 0
274 1 11.005714839198504 17.298290790127364 7.856320228403963 0 0 0
275 1 12.579368719222227 15.725210278686726 6.283045564263292 0 0 0
276 1 14.153211136661264 17.299383601636144 7.856293036189943 0 0 0
277 1 15.726971757771008 15.72642466285611 6.282953976068244 0 0 0
278 1 17.295305089790023 17.29532682521809 7.859326759134127 0 0 0
279 1 18.868007323011895 15.722817946801356 6.286679414484509 0 0 0
280 1 20.437604926199448 17.2942917466181 7.859753462269714 0 0 0
281 1 22.008769267889157 18.866198514867868 6.287468410047339 -1 0 0
282 1 1.5704367352175383 20.438119552078142 7.8595730709227345 0 0 0
283 1 3.141743055977852 18.867270464324392 6.286119158304421 0 0 0
284 1 4.714110970776922 20.43908507264787 7.858732980654111 0 0 0
285 1 6.286700399851238 18.867718934972565 6.285994621404656 0 0 0
286 1 7.85960795816264 20.43916137006739 7.858923798634057 0 0 0
287 1 9.432338347745056 18.86768381860263 6.286228484814198 0 0 0
288 1 11.005000679853378 20.43901988230841 7.859142302594077 0 0 0
289 1 12.577833445778767 18.867732051874427 6.286424025737498 0 0 0
290 1 14.1497683709616 20.438946281785284 7.859705300019077 0 0 0
291 1 15.723150675297836 18.86799188821887 6.286560241031619 0 0 0
292 1 17.29355719867912 20.438094202198027 7.860289636163274 0 0 0
293 1 18.866123211434267 18.86647694792511 6.287663616949458 0 0 0
294 1 20.436910580134327 20.437892450157026 7.860121793180373 0 0 0
295 1 22.008239389317662 22.009523759035716 9.432209124744528 -1 -1 0
296 1 1.5700148784400068 1.5712732716987494 11.004368504590188 0 0 0
297 1 3.1420452855448597 22.009501206429622 9.431723922881838 0 -1 0
298 1 4.713548068968963 1.5702877738304815 11.00403429341647 0 0 0
299 1 6.286824627183016 22.009529727637414 9.431647449998225 0 -1 0
300 1 7.859299648873816 1.5700494281405726 11.004470922568316 0 0 0
301 1 9.432335020356113 3.320099515657123e-05 9.43188113182957 0 0 0
302 1 11.004359462557836 1.571318560910019 11.004862375723192 0 0 0
303 1 12.576907956513146 3.930951803927392e-05 9.432441599332103 0 0 0
304 1 14.149014535138253 1.571637522648169 11.00490368620745 0 0 0
305 1 15.721228492197325 5.635236018968393e-06 9.432662895713237 0 0 0
306 1 17.29316266921187 1.5715984354242545 11.004730779861811 0 0 0
307 1 18.864998097021335 22.00953944546128 9.432493409054944 0 -1 0
308 1 20.436547397252806 1.571622957291227 11.004605872771151 0 0 0
309 1 22.00812642494543 3.14320843009295 9.43205276294896 -1 0 0
310 1 1.5691820386556272 4.71437937543267 11.004112873324054 0 0 0
311 1 3.1411845402653333 3.141982765825748 9.431244676326001 0 0 0
312 1 4.710646656512973 4.711050548244192 11.002985362134012 0 0 0
313 1 6.28521299067827 3.1393026908353314 9.430334017161945 0 0 0
314 1 7.8564642147573345 4.706693391991977 11.003139796362131 0 0 0
315 1 9.432113956074435 3.1401557677942264 9.430745299931296 0 0 0
316 1 11.003871517741832 4.71309771162806 11.004185830566664 0 0 0
317 1 12.577359699115874 3.141075325464098 9.431709392493156 0 0 0
318 1 14.149269653399463 4.715200766925591 11.005496438510923 0 0 0
319 1 15.721620004079949 3.14294513264628 9.432593917559688 0 0 0
320 1 17.293981109423616 4.714907300988678 11.004653148749085 0 0 0
321 1 18.86530863340514 3.14330828705808 9.43238170632845 0 0 0
322 1 20.436882113012572 4.715199078423327 11.004491232480765 0 0 0
323 1 22.00847299747629 6.287370531033714 9.431861328056009 -1 0 0
324 1 1.5694919536889789 7.8596308596789815 11.004348790949184 0 0 0
325 1 3.138601050207075 6.285281152203529 9.429947018360972 0 0 0
326 1 4.704935168112952 7.855219546246638 11.001874190044916 0 0 0
327 1 6.2727766202136435 6.272844501317501 9.41836955013812 0 0 0
328 1 7.816371053032871 7.818203965347953 10.964215052938648 0 0 0
329 1 9.43103813931417 6.275508683676151 9.42427507588403 0 0 0
330 1 11.022490034346433 7.844142886070765 10.97421715763006 0 0 0
331 1 12.58520489284633 6.274947888485927 9.42293490973125 0 0 0
332 1 14.15609750835377 7.8570480276210635 11.003293173288528 0 0 0
333 1 15.725393947010831 6.285114966087167 9.430795438726149 0 0 0
334 1 17.2975063932897 7.858456390235215 11.004094321845713 0 0 0
335 1 18.867050909010906 6.2869473987948306 9.431836746897748 0 0 0
336 1 20.43839934267633 7.859716778406508 11.004447502190358 0 0 0
337 1 0.0007938249218529696 9.432493505501116 9.432015879490333 0 0 0
338 1 1.5727013618819259 11.004744929380108 11.004455569402069 0 0 0
339 1 3.1429066851425143 9.433090296591603 9.432017570693315 0 0 0
340 1 4.7200107771271975 11.004657201165516 11.005605764643342 0 0 0
341 1 6.284244616198494 9.434644427013584 9.431353293980521 0 0 0
342 1 7.886282983252964 11.004215281853227 11.01534538938829 0 0 0
343 1 9.414192758952598 9.403017503409094 9.423578280262626 0 0 0
344 1 11.075162527978478 11.004607596419563 10.735546131392258 0 0 0
345 1 12.621020208120829 9.396984931282407 9.39694144100347 0 0 0
346 1 14.16073940586085 11.004642898298666 10.995121271628568 0 0 0
347 1 15.734063174440234 9.429643067442958 9.427632561619514 0 0 0
348 1 17.2998428519491 11.004806717983922 11.003095936592745 0 0 0
349 1 18.869645570348563 9.431917409849516 9.431297751253034 0 0 0
350 1 20.43984398370933 11.004785841338778 11.004326942266815 0 0 0
351 1 0.0008693870837150553 12.577025210594726 9.43202300211163 0 0 0
352 1 1.5697372433240657 14.149783291158482 11.00437978054531 0 0 0
353 1 3.143049400798004 12.576331563088855 9.432020491930706 0 0 0
354 1 4.7053117805251805 14.15401081893788 11.00192706334738 0 0 0
355 1 6.284450177323404 12.574567901026223 9.431393509081841 0 0 0
356 1 7.816490656648133 14.19120077692742 10.964068248717775 0 0 0
357 1 9.414113746206825 12.606195766831627 9.423598426304569 0 0 0
358 1 11.022009449765768 14.165139667277842 10.974298665904202 0 0 0
359 1 12.620858376257651 12.612557303268085 9.396776577465783 0 0 0
360 1 14.155532894012392 14.152078608458092 11.00345232702441 0 0 0
361 1 15.733944686636859 12.57995127805578 9.427636439552462 0 0 0
362 1 17.297333678126314 14.150988811856216 11.00415258318498 0 0 0
363 1 18.869656154211153 12.577673847226205 9.431297361831165 0 0 0
364 1 20.438472472049206 14.14979079711707 11.004467802531922 0 0 0
365 1 22.00861383368686 15.7221007776645 9.431902353601842 -1 0 0
366 1 1.569377595602645 17.295032277601486 11.004131776148778 0 0 0
367 1 3.1388434521920745 15.724098446940937 9.429992144042611 0 0 0
368 1 4.710887326020798 17.29829905750447 11.002976392259326 0 0 0
369 1 6.272965059479999 15.73659478970177 9.418276238704031 0 0 0
370 1 7.856605152453891 17.30279569412903 11.00305306618605 0 0 0
371 1 9.431097157923764 15.73402536939485 9.42411567294301 0 0 0
372 1 11.003875968112625 17.29634541718129 11.004141560010622 0 0 0
373 1 12.58508076321288 15.73451948637475 9.422918095226722 0 0 0
374 1 14.14915831102747 17.294133367856478 11.005532045699296 0 0 0
375 1 15.725246183493038 15.724303062588431 9.430900470521163 0 0 0
376 1 17.293938845968082 17.294519557706497 11.004691520630962 0 0 0
377 1 18.86706051632519 15.722545211467294 9.431890979567465 0 0 0
378 1 20.43696824575934 17.29428004128588 11.004508034903393 0 0 0
379 1 22.00820898436194 18.86627925062429 9.432073452419223 -1 0 0
380 1 1.5700796337146061 20.43816551978041 11.00437741350794 0 0 0
381 1 3.1413076783601817 18.8674494040669 9.431258605472738 0 0 0
382 1 4.71363251842919 20.439109374924474 11.004033319564416 0 0 0
383 1 6.285323684097474 18.870194416602825 9.430280593117724 0 0 0
384 1 7.859370041918936 20.43944421915477 11.004450380622485 0 0 0
385 1 9.432212219454355 18.869443724078266 9.430663870734486 0 0 0
386 1 11.004404265314179 20.43821042858897 11.004845915427163 0 0 0
387 1 12.57740574169269 18.868504980699402 9.431670220332274 0 0 0
388 1 14.149015427384626 20.437843062807698 11.00490379514766 0 0 0
389 1 15.721607998883451 18.866560466268226 9.432618550156228 0 0 0
390 1 17.293158334171764 20.43788694385283 11.004737231030283 0 0 0
391 1 18.86533201444147 18.866202508265825 9.432402575315326 0 0 0
392 1 20.43657425275481 20.437872806486286 11.004612057350641 0 0 0
393 1 22.00807370429759 22.009510327258422 12.576883456006113 -1 -1 0
394 1 1.5700147474492558 1.5712733048527994 14.149397975100246 0 0 0
395 1 3.14181555577198 22.009470940095675 12.576883068000505 0 -1 0
396 1 4.713547776724299 1.570287382308343 14.149731045788663 0 0 0
397 1 6.286313201039882 22.00948075865269 12.576882312114611 0 -1 0
398 1 7.859299428453646 1.570048922011902 14.149293409355181 0 0 0
399 1 9.432094054297657 22.00952541668563 12.576881751082587 0 -1 0
400 1 11.004359708285817 1.5713180030517893 14.148901536697121 0 0 0
401 1 12.576799832411648 22.009514427108954 12.5768815764543 0 -1 0
402 1 14.149014005212642 1.5716380539398904 14.148860099876075 0 0 0
403 1 15.721081878045863 22.00950712047649 12.576882252614947 0 -1 0
404 1 17.293162335287906 1.571598290474728 14.149034123768123 0 0 0
405 1 18.864836019096977 22.009519354191383 12.57688292452617 0 -1 0
406 1 20.436547108023866 1.5716230012089198 14.149160340672658 0 0 0
407 1 22.00790958904655 3.1431432115226836 12.576883041529785 -1 0 0
408 1 1.569181490661026 4.7143793307415525 14.149652528960889 0 0 0
409 1 3.1408751875645713 3.141842625868758 12.576882660844014 0 0 0
410 1 4.710645536122278 4.711049244945159 14.15078030625378 0 0 0
411 1 6.284312128278935 3.1392443561536076 12.576882569112028 0 0 0
412 1 7.856464682349385 4.706693961669361 14.150627373336457 0 0 0
413 1 9.431529930957483 3.1432391829183026 12.576882498263439 0 0 0
414 1 11.003872611236012 4.713096262550639 14.149582117832733 0 0 0
415 1 12.57673720730346 3.144138658249255 12.576881785214868 0 0 0
416 1 14.14926766117614 4.715204942080172 14.148269605570365 0 0 0
417 1 15.721450767962736 3.1432477225003344 12.5768824232333 0 0 0
418 1 17.29398107112995 4.714907006957567 14.149111916788941 0 0 0
419 1 18.865092351463804 3.1433366742014703 12.576882405753242 0 0 0
420 1 20.436881860782375 4.715199143786655 14.149273681539631 0 0 0
421 1 22.008037959102754 6.287155399234101 12.576882393614296 -1 0 0
422 1 1.5694918001493734 7.859631022237762 14.14941528076933 0 0 0
423 1 3.1384372556940137 6.2847690300386 12.57688257218988 0 0 0
424 1 4.704936697390594 7.855219021342223 14.151892295696877 0 0 0
425 1 6.276342671255778 6.276404294715422 12.57688579284975 0 0 0
426 1 7.816384658640362 7.818216195454441 14.189542039928051 0 0 0
427 1 9.428590291487476 6.294172513070674 12.576881144958264 0 0 0
428 1 11.022472620907672 7.8441477837345195 14.179516614259732 0 0 0
429 1 12.57319484209891 6.293358887586891 12.576880810345676 0 0 0
430 1 14.156074155981463 7.857064278228256 14.150466440747635 0 0 0
431 1 15.72297395887594 6.286852175265986 12.5768862923504 0 0 0
432 1 17.297500660859207 7.858458039065858 14.149672898886523 0 0 0
433 1 18.866365770273294 6.287027400621056 12.576882437873461 0 0 0
434 1 20.43839837847164 7.859717004040451 14.14931645272699 0 0 0
435 1 0.0004541808030832133 9.432543878677171 12.576881782108643 0 0 0
436 1 1.572699786434633 11.00474489955152 14.149307750113474 0 0 0
437 1 3.1423578732918322 9.432550951665894 12.57688198739546 0 0 0
438 1 4.720005396053484 11.00465716786952 14.148162917926815 0 0 0