LAMMPS data file via write_data, version 2 Aug 2023, timestep = 19, units = metal

691 atoms
3 atom types

0 22.009546999999998 xlo xhi
0 22.009546999999998 ylo yhi
0 22.009546999999998 zlo zhi

Masses

1 183.84
2 1.008
3 4.0026

Atoms # atomic

1 1 22.009538171400827 22.00888080309873 22.00842905408936 -1 -1 -1
2 1 1.5705193239869537 1.569958649129494 1.569439439742508 0 0 0
3 1 3.142550343728575 22.008817681550408 22.00855689213313 0 -1 -1
4 1 4.713808341227899 1.569389050768665 1.5692463048834795 0 0 0
5 1 6.286940573486604 22.008900116481176 22.0089060532083 0 -1 -1
6 1 7.859202961386573 1.5695278968195894 1.5696438062677336 0 0 0
7 1 9.432135790376703 22.008963888599922 22.00905564897002 0 -1 -1
8 1 11.00483755738926 1.5696318943738308 1.5696630273630001 0 0 0
9 1 12.577573291961299 22.00907857861923 22.0089973332328 0 -1 -1
10 1 14.150427910608677 1.5697711061359183 1.5695645480172769 0 0 0
11 1 15.722709636867851 22.009160132592548 22.00877938014084 0 -1 -1
12 1 17.295718862399973 1.5697049684850928 1.5691577072297165 0 0 0
13 1 18.867021445827802 22.00903194000062 22.008459993220704 0 -1 -1
14 1 20.438930669324506 1.57010469481445 1.5694068709361053 0 0 0
15 1 22.009478851291117 3.142952063824445 22.007636568670428 -1 0 -1
16 1 1.5701875466446211 4.714257311968254 1.5687710198257454 0 0 0
17 1 3.1416398270009775 3.1418217672539694 22.00705591318335 0 0 -1
18 1 4.711156467400401 4.711179513867675 1.56547027498542 0 0 0
19 1 6.286382031462427 3.1414809169945928 22.007407751692654 0 0 -1
20 1 7.858237953046126 4.711414980989415 1.566339344983737 0 0 0
21 1 9.431949651461297 3.141423050334473 22.007694614878663 0 0 -1
22 1 11.004843080412778 4.711454109907887 1.5666657980885121 0 0 0
23 1 12.57766681644435 3.1415534115053014 22.007643798229726 0 0 -1
24 1 14.151376454051796 4.711707178288657 1.5663033480869946 0 0 0
25 1 15.723154203102888 3.1417843522405615 22.007302162619585 0 0 -1
26 1 17.298333033244884 4.711551807700815 1.5654442053154547 0 0 0
27 1 18.86779829940723 3.142074234402656 22.00698249074203 0 0 -1
28 1 20.439270052614795 4.714410660206806 1.5687436684091431 0 0 0
29 1 9.059830965781311e-06 6.287707170072384 22.007528925540914 0 0 -1
30 1 1.5705597134416192 7.859659233889074 1.5691449005274063 0 0 0
31 1 3.1418634689968234 6.28705539129008 22.006931636602747 0 0 -1
32 1 4.712159123726498 7.858681900085478 1.5668961278187947 0 0 0
33 1 6.285225210357953 6.285389035725704 22.004972021447642 0 0 -1
34 1 7.856499295064638 7.856464983474799 1.561852031976466 0 0 0
35 1 9.431942497461476 6.2854947034025095 22.00595392387663 0 0 -1
36 1 11.004908906130122 7.857193604067651 1.565087497794941 0 0 0
37 1 12.577767889966873 6.285636761378071 22.005923571264272 0 0 -1
38 1 14.153263982344113 7.856766135052691 1.5618754699726012 0 0 0
39 1 15.724403700536103 6.2857040165630105 22.00490090064486 0 0 -1
40 1 17.297562966058237 7.859009493635162 1.5668455666166399 0 0 0
41 1 18.867712841681218 6.287295406392052 22.006853647713257 0 0 -1
42 1 20.439158361587467 7.85979519203561 1.5691025755054793 0 0 0
43 1 0.00015835142499513993 9.432453329278966 22.0078097016847 0 0 -1
44 1 1.570856518744733 11.004744584859075 1.5697320567711397 0 0 0
45 1 3.142152798210621 9.432226871127975 22.007419674494983 0 0 -1
46 1 4.712634738087231 11.004812167360946 1.5680875493469382 0 0 0
47 1 6.285559952441949 9.431914443425649 22.00636238931925 0 0 -1
48 1 7.857198179445631 11.004348412828751 1.5664905461686869 0 0 0
49 1 9.431645876426575 9.431622520291954 22.005917683625135 0 0 -1
50 1 11.004995038840637 11.004368761812565 1.5654490650618629 0 0 0
51 1 12.578264052748663 9.431756314888192 22.005883791687012 0 0 -1
52 1 14.152802561362211 11.004584828152078 1.5664201714730246 0 0 0
53 1 15.724330609180523 9.43218339094324 22.006260643027698 0 0 -1
54 1 17.297376887744388 11.005087851070924 1.567983657993538 0 0 0
55 1 18.86771621990021 9.432438921570231 22.007319600517874 0 0 -1
56 1 20.439162838865126 11.004865218364602 1.5696755560166322 0 0 0
57 1 0.00027010649611451686 12.577047412969952 22.008344914919338 0 0 -1
58 1 1.5709331861180167 14.149478881720764 1.5703511795330285 0 0 0
59 1 3.142318380855178 12.577165926428636 22.008136651862436 0 0 -1
60 1 4.712866088532138 14.150348205107287 1.5689429107933202 0 0 0
61 1 6.285840525849643 12.577367167444201 22.007668124501116 0 0 -1
62 1 7.857029292558288 14.152112798474208 1.5656922458908722 0 0 0
63 1 9.43154301862686 12.577644537612219 22.00731722390518 0 0 -1
64 1 11.005064464549307 14.15203770919532 1.5657100788245288 0 0 0
65 1 12.578538300723032 12.577765550807833 22.007274607663973 0 0 -1
66 1 14.1530852617399 14.15229013424415 1.5656487787981674 0 0 0
67 1 15.724241122619816 12.57761056073495 22.007546575975038 0 0 -1
68 1 17.297266575097947 14.150593743101597 1.5688223426654422 0 0 0
69 1 18.86776759308167 12.577360849366103 22.008023765994576 0 0 -1
70 1 20.439211953835187 14.149589358496174 1.5702870860476028 0 0 0
71 1 0.00026376729275858835 15.721470517328509 22.008839000189514 0 0 -1
72 1 1.5707288936413013 17.294099602264463 1.5704567435660133 0 0 0
73 1 3.142240891975065 15.72195001216199 22.00869281431837 0 0 -1
74 1 4.712430431368074 17.2962142502316 1.568867604292677 0 0 0
75 1 6.2855085283471634 15.723452885066024 22.0081110801386 0 0 -1
76 1 7.858204535231066 17.296723108755266 1.5689256679261967 0 0 0
77 1 9.431708718700047 15.723883332223496 22.008320192777987 0 0 -1
78 1 11.005033135262812 17.29670845594324 1.5690822282487713 0 0 0
79 1 12.578392597751506 15.723983482962574 22.008270435967958 0 0 -1
80 1 14.151840540470884 17.296899019039973 1.5688406563723372 0 0 0
81 1 15.724571433752681 15.72367246825072 22.008005216929813 0 0 -1
82 1 17.297570986358203 17.29643195725691 1.5687736210395506 0 0 0
83 1 18.867840300540916 15.722137175613295 22.008587073497768 0 0 -1
84 1 20.439274586901213 17.294209712006946 1.5704088189159482 0 0 0
85 1 0.00014383948728319108 18.865713498794076 22.008882501107966 0 0 -1
86 1 1.570864723188447 20.437458757494444 1.5704693267713246 0 0 0
87 1 3.142114787169779 18.866464229429255 22.008860371473627 0 0 -1
88 1 4.714152894574232 20.43797791883559 1.570372143334504 0 0 0
89 1 6.286466148362769 18.867002244933097 22.009093267205856 0 0 -1
90 1 7.8592931764215495 20.43814223092016 1.5706034084866878 0 0 0
91 1 9.432043821186417 18.867199500686983 22.009332685191033 0 0 -1
92 1 11.004924519884947 20.438216734754384 1.570630130104953 0 0 0
93 1 12.577882629166188 18.867301746929684 22.009274728749766 0 0 -1
94 1 14.150526868988905 20.43834555376397 1.5705092078526124 0 0 0
95 1 15.723425342303921 18.86723323767808 22.008967860983145 0 0 -1
96 1 17.295601156671903 20.438233730609433 1.570262820493255 0 0 0
97 1 18.867736019930817 18.866650235265997 22.008766869238535 0 0 -1
98 1 20.438835471744248 20.437578140941934 1.5704246464632456 0 0 0
99 1 22.009537818700437 22.00845071371822 3.1422935662365 -1 -1 0
100 1 1.5703698981442558 1.569571687198887 4.713900139786296 0 0 0
101 1 3.141902835299086 22.007961633547115 3.141726402587764 0 -1 0
102 1 4.712416942829845 1.5670845360929107 4.712498259101012 0 0 0
103 1 6.286456281432422 22.0081873284222 3.141771229058027 0 -1 0
104 1 7.8588672163868045 1.5674561678954357 4.713044927921349 0 0 0
105 1 9.432001231810954 22.008353644017028 3.1418138472112624 0 -1 0
106 1 11.00478386745998 1.5677727681156617 4.71274729876948 0 0 0
107 1 12.577710923594235 22.008489876613403 3.1417694480363547 0 -1 0
108 1 14.15064128702498 1.56777564365818 4.712991330384334 0 0 0
109 1 15.723182008143846 22.008497677268167 3.1416839401216015 0 -1 0
110 1 17.296972664819016 1.567496162560996 4.712442929802603 0 0 0
111 1 18.867649377931947 22.00821785816093 3.1416614001749066 0 -1 0
112 1 20.438988628254343 1.569740873177352 4.713866074612847 0 0 0
113 1 22.009453046408513 3.141391129708421 3.140776237452026 -1 0 0
114 1 1.568391068535922 4.712328235973388 4.712087759691282 0 0 0
115 1 3.1394397277168853 3.1390089902959595 3.138791816655754 0 0 0
116 1 4.703976578002357 4.703734214674394 4.7041410527418694 0 0 0
117 1 6.284375924121034 3.1377441265596566 3.1383380726882097 0 0 0
118 1 7.854353775436942 4.703101019029792 4.705173048206481 0 0 0
119 1 9.431518133436974 3.1384531421309787 3.1390458863374504 0 0 0
120 1 11.004784657437435 4.705047975448295 4.706411064217474 0 0 0
121 1 12.578086823243357 3.13863024009938 3.1390286117149446 0 0 0
122 1 14.155103769985372 4.703543474825649 4.7052206559798995 0 0 0
123 1 15.72510650416841 3.1381497542556502 3.1382986432388686 0 0 0
124 1 17.305264510667083 4.704298501375632 4.7042343155865165 0 0 0
125 1 18.86992603568385 3.1393415945645207 3.1387804036585867 0 0 0
126 1 20.440909341350707 4.712529131787514 4.7120793956118066 0 0 0
127 1 22.009531008629583 6.286842535211045 3.1409136192999045 -1 0 0
128 1 1.5691261270704435 7.859199973253 4.712975344366911 0 0 0
129 1 3.1390354133438585 6.285092400554786 3.1387174576931742 0 0 0
130 1 4.705797480011075 7.856273272167669 4.707447930210772 0 0 0
131 1 6.2778498934189075 6.277708848746536 3.1289184452487184 0 0 0
132 1 7.839412345020175 7.839388308824377 4.6823763258241 0 0 0
133 1 9.430900897726286 6.280040924291587 3.133049524728798 0 0 0
134 1 11.004818638148693 7.850192101279832 4.699322088522649 0 0 0
135 1 12.578783201245878 6.280270070720584 3.1330856122456225 0 0 0
136 1 14.170085465366617 7.839928649811525 4.68264693398791 0 0 0
137 1 15.731663846640554 6.278189267840146 3.129002804108531 0 0 0
138 1 17.30371823853993 7.856730387517044 4.707484871563275 0 0 0
139 1 18.87046658084115 6.285409298634699 3.138703069060149 0 0 0
140 1 20.440472175415326 7.859375044263006 4.712948929106507 0 0 0
141 1 0.00015412768985867683 9.432216617873308 3.1413239217681634 0 0 0
142 1 1.5697676643336687 11.004749609139335 4.713490043318849 0 0 0
143 1 3.1401315734629662 9.43188332068377 3.139856325752646 0 0 0
144 1 4.7081831886359655 11.005526782008367 4.70939395031955 0 0 0
145 1 6.281208629927012 9.431362225706343 3.1353478331285882 0 0 0
146 1 7.851232954771901 11.005408183323379 4.703826838807714 0 0 0
147 1 9.427688957821186 9.427739769477022 3.1306452562520293 0 0 0
148 1 11.004769728311167 11.001840615231082 4.694103820579049 0 0 0
149 1 12.582107552870237 9.427958173278627 3.1306891296317976 0 0 0
150 1 14.158583805230593 11.005730952042605 4.7037782085537225 0 0 0
151 1 15.728598606550783 9.431726525374103 3.1353381854414377 0 0 0
152 1 17.30169982446323 11.00587716777007 4.7093323523149495 0 0 0
153 1 18.869705961778973 9.432146588581995 3.139796628987186 0 0 0
154 1 20.440200119784475 11.004902741412511 4.713438178135917 0 0 0
155 1 0.0002847176968381234 12.577203176332437 3.1419955236805133 0 0 0
156 1 1.5699558389030173 14.149576454186928 4.71447985515977 0 0 0
157 1 3.140613842048489 12.577652383127322 3.1408327243902137 0 0 0
158 1 4.707617180734008 14.153278601028294 4.710224196429195 0 0 0
159 1 6.282359308633927 12.57852428794324 3.1372377192500593 0 0 0
160 1 7.843409530921288 14.166181181565376 4.6942113289551 0 0 0
161 1 9.428292080332737 12.580339445477644 3.131686459652043 0 0 0
162 1 11.0049936991797 14.160297739611492 4.694684146539683 0 0 0
163 1 12.581694831170765 12.580430747522385 3.1316866647007466 0 0 0
164 1 14.166512115986583 14.166246227302143 4.694322689347575 0 0 0
165 1 15.727692262634983 12.578807618676537 3.1371539315534682 0 0 0
166 1 17.30241839849122 14.153535587793453 4.710129759055092 0 0 0
167 1 18.869481453948495 12.577880678027535 3.140737002254377 0 0 0
168 1 20.44016814075966 14.149712330905249 4.714411976815697 0 0 0
169 1 0.00027756244645669764 15.721819160162642 3.1424478901016535 0 0 0
170 1 1.5699370542317779 17.29489567259668 4.71414003557345 0 0 0
171 1 3.140214394585037 15.723231402317541 3.140930801576928 0 0 0
172 1 4.709102389157559 17.299483599393234 4.710494305172316 0 0 0
173 1 6.2804733869466665 15.728461279606845 3.1351988023086323 0 0 0
174 1 7.854759296443287 17.302760075258888 4.709308868222521 0 0 0
175 1 9.430006851443727 15.728083270297994 3.135606040872768 0 0 0
176 1 11.005012727149921 17.30149052100923 4.70959385487448 0 0 0
177 1 12.580095245205312 15.728161298290134 3.13557265447035 0 0 0
178 1 14.15522064797144 17.30291393327257 4.7092410304349155 0 0 0
179 1 15.729570413907897 15.728646712332672 3.13516356522772 0 0 0
180 1 17.30080448892275 17.29968837193512 4.7104307658790106 0 0 0
181 1 18.869871673231263 15.72342869118188 3.140839609550335 0 0 0
182 1 20.440013083364967 17.295017021449027 4.714090880627975 0 0 0
183 1 0.0001532004387365316 18.866074241040838 3.1423632590564052 0 0 0
184 1 1.5708304833708995 20.437418922069917 4.71465698791689 0 0 0
185 1 3.1411056071325274 18.867198088495783 3.1414369994676377 0 0 0
186 1 4.713528756250758 20.438099130545506 4.714065006733158 0 0 0
187 1 6.285112893507255 18.868821090513215 3.1408329358579716 0 0 0
188 1 7.858933350097728 20.439107999044563 4.714080905875471 0 0 0
189 1 9.43164818045845 18.868685938786232 3.1411134950691104 0 0 0
190 1 11.004887588225941 20.439187628338118 4.7138616009777525 0 0 0
191 1 12.578297328360389 18.868790491313582 3.1410645878685823 0 0 0
192 1 14.150803048789511 20.439338960216308 4.713995208304186 0 0 0
193 1 15.724784012477874 18.869062601521964 3.1407337196198184 0 0 0
194 1 17.296140314142676 20.438388130922487 4.713971120432041 0 0 0
195 1 18.868743529243346 18.867397427632493 3.1413640806754444 0 0 0
196 1 20.438817451839977 20.43755239577193 4.714607360390702 0 0 0
197 1 22.009475813895808 22.00853610949584 6.28704349306031 -1 -1 0
198 1 1.570296850711373 1.5697894533996843 7.8594619226087135 0 0 0
199 1 3.1417112508714555 22.008062252880396 6.2867653456768835 0 -1 0
200 1 4.712271299033109 1.5677887448188064 7.858963247103638 0 0 0
201 1 6.285976874763361 22.007356038519514 6.286607745790356 0 -1 0
202 1 7.858216827012975 1.5664253515313566 7.859120848361588 0 0 0
203 1 9.432279954248676 22.00838312598486 6.287018570207816 0 -1 0
204 1 11.004638874083184 1.5699910288682422 7.859930529776211 0 0 0
205 1 12.57725190627886 22.00854412773776 6.286976712267959 0 -1 0
206 1 14.1510154609692 1.566804669282747 7.8590382006382855 0 0 0
207 1 15.723478178957874 22.007718788910665 6.286514669024425 0 -1 0
208 1 17.296916914243887 1.5682115397151501 7.858840031010515 0 0 0
209 1 18.867697902992685 22.008349257661557 6.286676796476491 0 -1 0
210 1 20.43888961537371 1.5699673997380321 7.85940322024814 0 0 0
211 1 22.009374613309024 3.141282814684854 6.286312679058364 -1 0 0
212 1 1.5688721023302874 4.712456452814554 7.858886624570271 0 0 0
213 1 3.1396562688308443 3.139160603046218 6.285322772435952 0 0 0
214 1 4.707091415796167 4.706692641714464 7.856885533800943 0 0 0
215 1 6.281995282966796 3.1328498618134097 6.282504290425079 0 0 0
216 1 7.851531726439701 4.695411231021702 7.853211821338007 0 0 0
217 1 9.432295829546668 3.135737679274262 6.284225025235569 0 0 0
218 1 11.00461513803966 4.712494546649451 7.860468941001164 0 0 0
219 1 12.577066257672373 3.13598306060684 6.284207034194663 0 0 0
220 1 14.157506931506216 4.696042984969091 7.8532574738609995 0 0 0
221 1 15.7272137314738 3.1333990290563203 6.282486722429795 0 0 0
222 1 17.30197728528502 4.707230933735979 7.85679619087419 0 0 0
223 1 18.86954428512201 3.139525657044937 6.285270138259504 0 0 0
224 1 20.44025099619798 4.71266808933994 7.85883705142108 0 0 0
225 1 22.009440956848625 6.286020807486689 6.285926765061495 -1 0 0
226 1 1.568305175729363 7.858806658614695 7.859339530424765 0 0 0
227 1 3.1341811366262786 6.282288045093462 6.2827372214093415 0 0 0
228 1 4.697621041691893 7.852113026088648 7.85439283668665 0 0 0
229 1 6.257306791768163 6.25718791091531 6.258165374740813 0 0 0
230 1 7.784769270021017 7.783290022412654 7.776644345498531 0 0 0
231 1 9.427509091705994 6.2631610021306745 6.268042490760527 0 0 0
232 1 11.004991827704014 7.840547785341834 7.824772490728548 0 0 0
233 1 12.581965152435693 6.2635492695646775 6.268109003350553 0 0 0
234 1 14.223913628625615 7.784437769421354 7.777438503636684 0 0 0
235 1 15.751708920912957 6.258039679138716 6.258488441271855 0 0 0
236 1 17.311647488931413 7.852679379614794 7.854344767938639 0 0 0
237 1 18.875083543889566 6.282695861981578 6.2827241799826 0 0 0
238 1 20.441121044367883 7.859010964277846 7.859283797788457 0 0 0
239 1 9.743360173741165e-05 9.432277000350885 6.286567629823277 0 0 0
240 1 1.5712124957734162 11.004037908900166 7.8599763222138455 0 0 0
241 1 3.1380532962939056 9.432298178988953 6.284944781786182 0 0 0
242 1 4.714858645281718 11.003745623965058 7.860378500257668 0 0 0
243 1 6.269320741169194 9.433158246607432 6.276138313411181 0 0 0
244 1 7.858738812989746 11.029063140781437 7.846252238388726 0 0 0
245 1 9.377621529912535 9.381090338142007 6.250024042742831 0 0 0
246 1 11.00450348859808 10.99560109173927 7.491779094564465 0 0 0
247 1 12.631699925436184 9.381736480741626 6.250160579839614 0 0 0
248 1 14.150671653195058 11.029465903557167 7.846286048402805 0 0 0
249 1 15.740152346890106 9.433655803539061 6.27624324410727 0 0 0
250 1 17.29497254679094 11.004213842337226 7.860208916218934 0 0 0
251 1 18.871626075608532 9.432637785060567 6.284873413751297 0 0 0
252 1 20.438671209150304 11.004223825571495 7.8599004267896495 0 0 0
253 1 0.0002547279816847306 12.57660910264122 6.287437185257718 0 0 0
254 1 1.5693397217902834 14.149920543732078 7.860024848012402 0 0 0
255 1 3.139329845665209 12.576768769319962 6.286653509030901 0 0 0
256 1 4.70364321517772 14.154973114920637 7.857642538512946 0 0 0
257 1 6.271183575273249 12.582671183556071 6.277743750883798 0 0 0
258 1 7.8185677633175 14.189627941504964 7.824462304731131 0 0 0
259 1 9.390298555351627 12.625220322960153 6.25037864886953 0 0 0
260 1 11.00510196019619 14.181384441000587 7.804631690794964 0 0 0
261 1 12.619193237747222 12.624971252705 6.250440872482049 0 0 0
262 1 14.190768910186982 14.189334629376697 7.824879078286103 0 0 0
263 1 15.73860695871006 12.58300819578685 6.277716516628043 0 0 0
264 1 17.306224144016028 14.155265632031382 7.8575066616549005 0 0 0
265 1 18.870683018538195 12.577068349730842 6.286532616478239 0 0 0
266 1 20.440680277458153 14.15007488616376 7.859948588146673 0 0 0
267 1 0.0002339930035708829 15.722331389211394 6.287139013894456 0 0 0
268 1 1.5699479969772319 17.295377635956793 7.859667192756379 0 0 0
269 1 3.1379854161086342 15.72453012090144 6.285573380217433 0 0 0
270 1 4.710235925252933 17.298905281185572 7.858774763272355 0 0 0
271 1 6.271494256044024 15.737640746300542 6.274586948869066 0 0 0
272 1 7.856636775424928 17.30317952344743 7.8596897706631434 0 0 0
273 1 9.424117067550279 15.743323128308784 6.272571469143083 0 0 0
274 1 11.004954240869678 17.300146191083897 7.859883055050819 0 0 0
275 1 12.58589431226913 15.743327481993028 6.272523234073468 0 0 0
276 1 14.153135163009441 17.303231088940134 7.85962049722342 0 0 0
277 1 15.738287495139613 15.73768713121749 6.2746622924820805 0 0 0
278 1 17.29955450985713 17.29915372241201 7.858641300768502 0 0 0
279 1 18.871989137565354 15.724746276643454 6.285468599322256 0 0 0
280 1 20.439879096012966 17.295507357337115 7.859601017274065 0 0 0
281 1 0.00010170805977054706 18.866352303252125 6.287157190632363 0 0 0
282 1 1.5706643300190175 20.437768740261333 7.859795021601408 0 0 0
283 1 3.141190190950344 18.867271925324307 6.286776125443735 0 0 0
284 1 4.713062045900271 20.438485233083654 7.859553476054411 0 0 0
285 1 6.2848110441643765 18.870084209419296 6.286245041750495 0 0 0
286 1 7.858858072075553 20.43892238116351 7.8601077106191735 0 0 0
287 1 9.431751916062721 18.87135255822957 6.285966479001016 0 0 0
288 1 11.004792883696776 20.438854558469586 7.860511229541028 0 0 0
289 1 12.57807495336787 18.871449632182557 6.285912636738854 0 0 0
290 1 14.150684809664597 20.439153266205274 7.8600030756615 0 0 0
291 1 15.724938163373391 18.870318126728534 6.286148665658444 0 0 0
292 1 17.29644329167076 20.438798508797955 7.859420919606844 0 0 0
293 1 18.868555131178425 18.867499915466464 6.286679678960194 0 0 0
294 1 20.438832880868205 20.437911395040327 7.859727362365083 0 0 0
295 1 22.00939349772576 22.008900608384586 9.432457490579624 -1 -1 0
296 1 1.5702832268587932 1.5702585188385116 11.00528025096506 0 0 0
297 1 3.1415271220447396 22.008566328395773 9.432500272820452 0 -1 0
298 1 4.712364837743155 1.5685375579795906 11.005629900428971 0 0 0
299 1 6.285287462468952 22.00815550222719 9.43241194403229 0 -1 0
300 1 7.85819269076405 1.5674577200879702 11.004882450875796 0 0 0
301 1 9.431761085551203 22.008820815781615 9.432335981924163 0 -1 0
302 1 11.004556020280628 1.5689210526632371 11.00443367555747 0 0 0
303 1 12.577561320319182 22.00898345774241 9.432270382036878 0 -1 0
304 1 14.150898700139662 1.5678001275900626 11.00473651284703 0 0 0
305 1 15.723978430385085 22.008517833348296 9.432251866938438 0 -1 0
306 1 17.2966873341493 1.5689350074739217 11.005433800746331 0 0 0
307 1 18.867715885694444 22.008855173651316 9.432365778692017 0 -1 0
308 1 20.438760529348418 1.570432613619522 11.005190846696328 0 0 0
309 1 22.00929216324183 3.1415607213387924 9.432266047122317 -1 0 0
310 1 1.5691603754630155 4.712976333227419 11.005384225271287 0 0 0
311 1 3.1398973579922274 3.139724092838046 9.432255570837496 0 0 0
312 1 4.708361128353418 4.707859436562729 11.006638926020239 0 0 0
313 1 6.281838925398922 3.1352614192436734 9.431848226231873 0 0 0
314 1 7.854116424298933 4.698818089044551 11.00613096349446 0 0 0
315 1 9.430274160956872 3.1400970406157716 9.430913526172784 0 0 0
316 1 11.00447392440303 4.703256414885568 11.002991850273206 0 0 0
317 1 12.578779991885025 3.1403555776120644 9.430858205714156 0 0 0
318 1 14.154801662295096 4.699327583498619 11.005914873969457 0 0 0
319 1 15.727175369406874 3.1357553122717516 9.431697508160081 0 0 0
320 1 17.3005966950862 4.708338785894201 11.006423516849777 0 0 0
321 1 18.86912834972449 3.140080758322482 9.432122734755186 0 0 0
322 1 20.439835138686444 4.713172698188558 11.005292860745303 0 0 0
323 1 22.00936096651777 6.285857268340932 9.432169988902572 -1 0 0
324 1 1.569377704957859 7.859229581920362 11.004515575423829 0 0 0
325 1 3.1367173625213915 6.2824629825014435 9.432113858217747 0 0 0
326 1 4.703288802779657 7.85364814644547 11.007077489504555 0 0 0
327 1 6.271350041102295 6.27093634516913 9.431232378489277 0 0 0
328 1 7.80650252769451 7.796857022005752 11.066649403378303 0 0 0
329 1 9.413563222808643 6.293873458139694 9.421672493118203 0 0 0
330 1 11.00466884294716 7.738481876373679 11.057237613891301 0 0 0
331 1 12.595324525175448 6.294471616618268 9.421726572751876 0 0 0
332 1 14.202279051302073 7.797669176217448 11.065889461529975 0 0 0
333 1 15.73769733027128 6.271565739821077 9.431088512410414 0 0 0
334 1 17.30591654620879 7.854143231934661 11.006879796482242 0 0 0
335 1 18.872414872476686 6.282869258173505 9.431995124833577 0 0 0
336 1 20.43993871184657 7.859420827300397 11.004434964206178 0 0 0
337 1 4.1501807168519436e-05 9.432306681358623 9.43219300072221 0 0 0
338 1 1.5716314676299843 11.003995553916807 11.00454550574402 0 0 0
339 1 3.1430904311586274 9.43138079520913 9.432004646920268 0 0 0
340 1 4.717331775422512 11.003192985667901 11.00316926733089 0 0 0
341 1 6.292809264201444 9.41786846246725 9.429063948364645 0 0 0
342 1 7.868103035352364 11.026122261536873 11.015025028778826 0 0 0
343 1 9.148243627974221 9.177912888233331 9.38265570648469 0 0 0
344 1 11.005362759636688 11.138079526126466 11.465688175770943 0 0 0
345 1 12.860313986207368 9.182108390678755 9.383333666822388 0 0 0
346 1 14.141169701501887 11.026592754654127 11.014895444957691 0 0 0
347 1 15.716994162688675 9.418603386086106 9.429023037290868 0 0 0
348 1 17.2924739218474 11.003666633965391 11.003092345014041 0 0 0
349 1 18.86654305636826 9.431760951867297 9.431881987817302 0 0 0
350 1 20.438159948498186 11.004179935635307 11.004480905171674 0 0 0
351 1 0.00020460187473213764 12.576543824506878 9.432542685621433 0 0 0
352 1 1.5689737707209428 14.150290625338194 11.005281037431683 0 0 0
353 1 3.140480336094868 12.57719715645016 9.432749464869378 0 0 0
354 1 4.702178116958151 14.156408011929349 11.00803234322362 0 0 0
355 1 6.276090693678335 12.5881035734229 9.43389357654332 0 0 0
356 1 7.815576197014827 14.194690136063956 11.041340397944992 0 0 0
357 1 9.355871644181109 12.83065449609723 9.43495043785689 0 0 0
358 1 11.005113256837433 14.20367606812862 11.068777868067215 0 0 0
359 1 12.65376124777689 12.829455852003154 9.435099526531042 0 0 0
360 1 14.19381046665525 14.19451216777731 11.040764571050007 0 0 0
361 1 15.733815710420277 12.588356290093676 9.433765732959737 0 0 0
362 1 17.307614289294335 14.156724790401594 11.00785536017493 0 0 0
363 1 18.86945933063463 12.577511315579093 9.432617758219687 0 0 0
364 1 20.440932989600327 14.150446627049584 11.005206789544147 0 0 0
365 1 0.00017388370085630819 15.722995532369294 9.432587889198148 0 0 0
366 1 1.569740448152148 17.295815601214308 11.00565990661507 0 0 0
367 1 3.1381128670363307 15.725394683854509 9.432607733030997 0 0 0
368 1 4.7096197129533275 17.299921704863056 11.006713716745107 0 0 0
369 1 6.275584239089362 15.734664658599476 9.432515743386459 0 0 0
370 1 7.855547030662382 17.306042161512828 11.006366299610672 0 0 0
371 1 9.431077267136803 15.715492041067904 9.43325973625337 0 0 0
372 1 11.00489123622854 17.306924854064068 11.007430076982555 0 0 0
373 1 12.578661946128692 15.715290556095193 9.433187379171 0 0 0
374 1 14.154118714452652 17.30613815363529 11.006167505839743 0 0 0
375 1 15.734158728728271 15.734812739633728 9.432348914749697 0 0 0
376 1 17.30006661007291 17.300189161140278 11.006521924976976 0 0 0
377 1 18.8717480772919 15.72562823520639 9.43247316895237 0 0 0
378 1 20.43997689269394 17.29595184070732 11.00557811184655 0 0 0
379 1 3.020423901267978e-05 18.866810448509447 9.432589746352841 0 0 0
380 1 1.5705520477673414 20.438205666290948 11.005386190351466 0 0 0
381 1 3.1408729506851967 18.867832488375377 9.43264273017245 0 0 0
382 1 4.712823174388032 20.43921698129491 11.005711378924708 0 0 0
383 1 6.2836374301370315 18.870846048874096 9.43264883694614 0 0 0
384 1 7.858480797850365 20.440229990719757 11.005311239195578 0 0 0
385 1 9.431219958639263 18.867942344376182 9.432790404084852 0 0 0
386 1 11.004718533858792 20.440614297715218 11.005086418150473 0 0 0
387 1 12.578427216540357 18.86801099515932 9.432719125617428 0 0 0
388 1 14.150928016306962 20.44046605210647 11.00516875800243 0 0 0
389 1 15.72596212341135 18.871100208470068 9.432488842373294 0 0 0
390 1 17.296552529820797 20.439532201369182 11.005530912180026 0 0 0
391 1 18.868731308535533 18.868072524504733 9.43251230521033 0 0 0
392 1 20.438814999951056 20.438350588027244 11.005304567636387 0 0 0
393 1 22.00935208147659 22.00930134643816 12.57788929615391 -1 -1 0
394 1 1.57032146446533 1.5707602527200795 14.150644520233488 0 0 0
395 1 3.1415389297739886 22.009080754105668 12.578289743399619 0 -1 0
396 1 4.712429717172775 1.5689534011869264 14.151956175675998 0 0 0
397 1 6.285618700201485 22.008950276447496 12.578525797191437 0 -1 0
398 1 7.857712834307612 1.5679709594591649 14.152750899739068 0 0 0
399 1 9.431722416408135 22.009455034274207 12.578771141494578 0 -1 0
400 1 11.004582122667395 1.5680672182299893 14.153224624885326 0 0 0
401 1 12.577520261429159 6.454143913664677e-05 12.578682198204405 0 0 0
402 1 14.15142589525713 1.5682536400825642 14.152570572365635 0 0 0
403 1 15.723584767139402 22.00928663395899 12.578319087711629 0 -1 0
404 1 17.296644213006626 1.5693114498311378 14.151716554620357 0 0 0
405 1 18.8676311566701 22.009353501695337 12.578123959954574 0 -1 0
406 1 20.43872822702424 1.5709156094629666 14.150541452599786 0 0 0
407 1 22.00925301137386 3.1421755746040247 12.577946123314746 -1 0 0
408 1 1.5689786304977622 4.713822594586794 14.151208892383437 0 0 0
409 1 3.1401352743064135 3.1404495347416828 12.57873174739214 0 0 0
410 1 4.705897324541161 4.70686724647464 14.157563970235078 0 0 0
411 1 6.282934610600023 3.1354417287763194 12.580408819942067 0 0 0
412 1 7.851248976727082 4.701846001589774 14.160745906608543 0 0 0
413 1 9.43081912168008 3.13338554647789 12.5810103364095 0 0 0
414 1 11.00456215143699 4.703452142460118 14.159068284395675 0 0 0
415 1 12.578200797799711 3.1335867215695554 12.580899353300858 0 0 0
416 1 14.157835377446913 4.70216341727226 14.160527537595659 0 0 0
417 1 15.726033916578347 3.135892630053909 12.580152781459642 0 0 0
418 1 17.30308648510525 4.7072975564849475 14.157253432704039 0 0 0
419 1 18.868823432114752 3.1407720026992645 12.578540895380995 0 0 0
420 1 20.440036988870858 4.7139901422544295 14.15109494313725 0 0 0
421 1 22.00932746819049 6.286947574352714 12.577582262986379 -1 0 0
422 1 1.5700599847764578 7.859945504360069 14.150039093265459 0 0 0
423 1 3.136544907201415 6.2840068532978455 12.579797963677873 0 0 0
424 1 4.7093149275307935 7.857990248631597 14.153562057960341 0 0 0
425 1 6.263884438731704 6.263999885689176 12.598158874382655 0 0 0
426 1 7.844701134887056 7.844418221792862 14.173781104766066 0 0 0
427 1 9.416683880533382 6.252578511207819 12.603362065832993 0 0 0
428 1 11.004654591999234 7.8493980542282555 14.16465054527501 0 0 0
429 1 12.592446742872363 6.252817667755974 12.60322301384076 0 0 0
430 1 14.164637453529942 7.844693473079712 14.17350515148052 0 0 0
431 1 15.745016273602564 6.2646156365300385 12.597715791666216 0 0 0
432 1 17.299985129821042 7.858353582083304 14.15330713161133 0 0 0
433 1 18.872517262940264 6.284347962773032 12.57960112192569 0 0 0
434 1 20.439259455510168 7.860097742708819 14.149940465058357 0 0 0
435 1 22.00953994695073 9.432434464133813 12.57713569665258 -1 0 0
436 1 1.570168427654316 11.004554452869067 14.150471182826342 0 0 0
437 1 3.140736546903954 9.432492204103454 12.577949622593467 0 0 0
438 1 4.7096608593682125 11.004784521417085 14.15402538723536 0 0 0
439 1 6.277824979323733 9.433662656213636 12.582144942138408 0 0 0
440 1 7.852962267556876 11.005135673045093 14.16011981994864 0 0 0
441 1 9.395147995313714 9.384985234680359 12.598530278676675 0 0 0