LAMMPS data file via write_data, version 2 Aug 2023, timestep = 23, units = metal

692 atoms
3 atom types

0 22.009546999999998 xlo xhi
0 22.009546999999998 ylo yhi
0 22.009546999999998 zlo zhi

Masses

1 183.84
2 1.008
3 4.0026

Atoms # atomic

1 1 22.008984918691443 22.008834989769397 22.008724073094438 -1 -1 -1
2 1 1.5698519197280134 1.5693730601902294 1.569424969739667 0 0 0
3 1 3.1429356279368776 22.00847156746146 22.008872452857148 0 -1 -1
4 1 4.714324428179129 1.569106186068969 1.5697182435571957 0 0 0
5 1 6.28761473589416 22.00864781394752 8.867193150384363e-05 0 -1 0
6 1 7.859879896264118 1.5697512151749375 1.570878186794311 0 0 0
7 1 9.432516135130372 22.009013375867138 0.0006940282218553074 0 -1 0
8 1 11.00500370419044 1.5703079522841648 1.571580017565575 0 0 0
9 1 12.577354599065918 22.009372399756362 0.0008626252154633754 0 -1 0
10 1 14.149689146422608 1.570577870163214 1.571677333272497 0 0 0
11 1 15.721923649033585 22.00954310989532 0.000516388044234874 0 -1 0
12 1 17.294270098975336 1.5702853104431267 1.5708992651655775 0 0 0
13 1 18.866059780194178 22.009336730286286 22.009279680097407 0 -1 -1
14 1 20.43739711738914 1.5701668189086644 1.5703240484550303 0 0 0
15 1 22.009125737797568 3.1424828208823166 22.00763675768134 -1 0 -1
16 1 1.56996192937994 4.713609164015674 1.5682550842794354 0 0 0
17 1 3.14200567468607 3.1415233422448745 22.00690291311581 0 0 -1
18 1 4.7119196216496695 4.711375737964368 1.5653605309650103 0 0 0
19 1 6.287129757493234 3.141723248235252 22.00812902963411 0 0 -1
20 1 7.859446955344741 4.712632615772303 1.5679851179815485 0 0 0
21 1 9.432474403285232 3.14201894670243 22.009161291887807 0 0 -1
22 1 11.005325422714348 4.713053584333991 1.569431656252229 0 0 0
23 1 12.577645566365062 3.142296549448232 22.00946272224808 0 0 -1
24 1 14.150696068473895 4.713229298192639 1.569365040968244 0 0 0
25 1 15.722487346826428 3.142292501240499 22.008915270418054 0 0 -1
26 1 17.296857831543047 4.712230098955891 1.5676938618467635 0 0 0
27 1 18.86684500962469 3.14216187308197 22.00786829397406 0 0 -1
28 1 20.438488543182498 4.713841534419074 1.5690719738948882 0 0 0
29 1 0.00038128917898466486 6.2871276665750235 22.007135868758986 0 0 -1
30 1 1.5709633308846722 7.859392413665618 1.5682577806476146 0 0 0
31 1 3.142628511095723 6.286976213798132 22.006399569268904 0 0 -1
32 1 4.7132365983140145 7.859115387013 1.5663894451414353 0 0 0
33 1 6.286600266629571 6.286279285238046 22.00571594713593 0 0 -1
34 1 7.8589208923729075 7.858464714934712 1.5649256487615715 0 0 0
35 1 9.432681733334773 6.286439022265289 22.008136291337784 0 0 -1
36 1 11.005427372687679 7.8585367324640405 1.5690956067203174 0 0 0
37 1 12.578034867474164 6.286500413701786 22.008559918937983 0 0 -1
38 1 14.153319088284006 7.857604842902165 1.5647886730412268 0 0 0
39 1 15.724232530054925 6.285891736341277 22.006609531028417 0 0 -1
40 1 17.298242533364533 7.8582010376759 1.5669534919590833 0 0 0
41 1 18.867922576328652 6.286582342538428 22.0070986920225 0 0 -1
42 1 20.439597115125135 7.85919764226492 1.5686197996786844 0 0 0
43 1 0.0011360922336434017 9.432359274878475 22.00723674329985 0 0 -1
44 1 1.5717300869164674 11.00514176952655 1.5688555304992133 0 0 0
45 1 3.1433272011087143 9.4324805519411 22.00677192734234 0 0 -1
46 1 4.714101703137934 11.005327328383029 1.5678481655590653 0 0 0
47 1 6.28730905128156 9.43265236399584 22.006952770427596 0 0 -1
48 1 7.860039022592628 11.004850302246185 1.5696453551809262 0 0 0
49 1 9.433155418871848 9.432566830806119 22.009164377979893 0 0 -1
50 1 11.006031989955071 11.004980569163047 1.5709002621245056 0 0 0
51 1 12.578719121328005 9.432309238541514 22.007996011317783 0 0 -1
52 1 14.154391680013868 11.005203676547541 1.565059683889066 0 0 0
53 1 15.72548342859069 9.431879964940842 22.006599761741406 0 0 -1
54 1 17.298887156556003 11.005461698984734 1.567219261469768 0 0 0
55 1 18.868806822483375 9.432151426774881 22.00713963281598 0 0 -1
56 1 20.440229872878728 11.00514878719125 1.5689123256491972 0 0 0
57 1 0.0014605487002586817 12.577609742368939 22.007820829853763 0 0 -1
58 1 1.571972386453711 14.15028106698595 1.569829262108916 0 0 0
59 1 3.143762380262926 12.577615221281153 22.007682370825677 0 0 -1
60 1 4.7147365471369005 14.15044202352024 1.5694583862228944 0 0 0
61 1 6.287804896569926 12.577570001002732 22.008609953092794 0 0 -1
62 1 7.859926527928442 14.150486967775038 1.5700331881297893 0 0 0
63 1 9.433154911803975 12.57776590660138 0.0009400641987906315 0 0 0
64 1 11.00527237963529 14.151604114849233 1.5701411322736765 0 0 0
65 1 12.578889657640405 12.578383009462161 22.009255882330923 0 0 -1
66 1 14.153244274051673 14.152883135871065 1.567466666456201 0 0 0
67 1 15.725566688434515 12.57871786186489 22.007622822247427 0 0 -1
68 1 17.298449656511465 14.152429554515129 1.5682577325371783 0 0 0
69 1 18.869069969951074 12.57811130973595 22.007755757316577 0 0 -1
70 1 20.4401750676213 14.15078770795272 1.5697162388531143 0 0 0
71 1 0.0011937167059689034 15.722396549834276 22.008590079532503 0 0 -1
72 1 1.5714499747070911 17.294645826179057 1.5705121942521136 0 0 0
73 1 3.143688132953814 15.722261789913992 22.008699566647305 0 0 -1
74 1 4.7144537663366295 17.295316338470602 1.5702278829592815 0 0 0
75 1 6.287526003022921 15.722711792265725 5.178330948041321e-06 0 0 0
76 1 7.859808577850546 17.295122955387498 1.5717155650125891 0 0 0
77 1 9.432480236805056 15.723428918166256 0.0010921367852459582 0 0 0
78 1 11.005082155612822 17.295591280070266 1.5721052424869846 0 0 0
79 1 12.57824058919027 15.724034564753866 0.0010121812802814394 0 0 0
80 1 14.150831782669387 17.29641317058048 1.5715073299046922 0 0 0
81 1 15.724673230641386 15.724682196831301 22.00940591912832 0 0 -1
82 1 17.29663343885307 17.29701120837418 1.570486083871679 0 0 0
83 1 18.86856041141165 15.723566659493637 22.008717889250278 0 0 -1
84 1 20.439251238971547 17.295338103189668 1.5706666684326607 0 0 0
85 1 0.0003266498311612345 18.866291845480223 22.009069830995006 0 0 -1
86 1 1.5707511366181826 20.437279464168704 1.5708506948524825 0 0 0
87 1 3.1431960154617116 18.86627024528079 22.00924814314973 0 0 -1
88 1 4.715136633933209 20.437236336668413 1.5713131192682734 0 0 0
89 1 6.287664394466155 18.866329277712847 0.0006108304622207307 0 0 0
90 1 7.860064561520173 20.437445378636472 1.5721243235362041 0 0 0
91 1 9.432497239143753 18.86675493714973 0.001278383256986051 0 0 0
92 1 11.004915947502225 20.43786640626864 1.5725813461044058 0 0 0
93 1 12.577591710282721 18.8672254204299 0.0013777038113258007 0 0 0
94 1 14.149639926653478 20.438318235040025 1.5725206871449384 0 0 0
95 1 15.722725804606561 18.86760808579869 0.0008652022998465224 0 0 0
96 1 17.29426323417767 20.43851913631235 1.571882173906438 0 0 0
97 1 18.867217832704437 18.867361215958613 9.239302932930633e-05 0 0 0
98 1 20.437699984069788 20.437816572135947 1.571391707934533 0 0 0
99 1 22.008220986758708 22.008262937401426 3.1428600761903014 -1 -1 0
100 1 1.568832815569078 1.5687976275114441 4.713955608351093 0 0 0
101 1 3.1416045776790873 22.00718410351689 3.1419038168777873 0 -1 0
102 1 4.711746183083166 1.5656824234868383 4.712183711408469 0 0 0
103 1 6.287228580021956 22.00751018358043 3.1428270397339624 0 -1 0
104 1 7.8594255152428465 1.5677613077734316 4.714161919904331 0 0 0
105 1 9.432420568848661 22.008176443160153 3.1436585463508586 0 -1 0
106 1 11.004651917673437 1.5692648948493104 4.715151735768433 0 0 0
107 1 12.577081858914784 22.008785037280443 3.144125103214866 0 -1 0
108 1 14.148837628461088 1.5699002325211815 4.715932817825948 0 0 0
109 1 15.721482145082955 22.009035305179673 3.1439836378083466 0 -1 0
110 1 17.293993764961787 1.5692074370610036 4.714941958415583 0 0 0
111 1 18.865544372914385 22.008587381791425 3.143338494046345 0 -1 0
112 1 20.436571328655962 1.5699585949820358 4.714914145708023 0 0 0
113 1 22.00763685189667 3.14086809249539 3.1409859068724426 -1 0 0
114 1 1.5660455276830954 4.711043368068369 4.711097013349286 0 0 0
115 1 3.138323487078016 3.1377275954358312 3.1379006731498325 0 0 0
116 1 4.701340855314873 4.701050648854536 4.701265350950698 0 0 0
117 1 6.2853543882609415 3.138293825743172 3.1390549420751652 0 0 0
118 1 7.856837552909955 4.706237837226624 4.706997567061283 0 0 0
119 1 9.432291656213215 3.1399653806658807 3.1410962993834026 0 0 0
120 1 11.005712946567197 4.709331103035998 4.710325564381524 0 0 0
121 1 12.577738808695543 3.140765830037876 3.1420294199868497 0 0 0
122 1 14.152763238774977 4.708786848121667 4.7104733499997185 0 0 0
123 1 15.723164760248071 3.14007412213182 3.1413561067535287 0 0 0
124 1 17.29951448324253 4.708871709118705 4.709610061465398 0 0 0
125 1 18.867058021844755 3.1404660181261312 3.1410487952830883 0 0 0
126 1 20.437878067759573 4.712709698409234 4.712999905941853 0 0 0
127 1 22.008814015795195 6.285996285355599 3.1402172232295573 -1 0 0
128 1 1.5679192030992797 7.858417709022751 4.711269519975567 0 0 0
129 1 3.1386973767724036 6.28452755886612 3.13740140415744 0 0 0
130 1 4.704895240103609 7.8559693673113005 4.704712421719615 0 0 0
131 1 6.27996863904707 6.279681214096957 3.12956106215335 0 0 0
132 1 7.846051789497613 7.846732960954274 4.68800036174442 0 0 0
133 1 9.432670320674017 6.283147226777469 3.137105069041319 0 0 0
134 1 11.006029999489336 7.8560366407057085 4.709667541993351 0 0 0
135 1 12.578447972987002 6.284098181145479 3.1383449995829262 0 0 0
136 1 14.16868890316912 7.844608107390787 4.691386212705699 0 0 0
137 1 15.729578226343634 6.280414697402126 3.1335657678213575 0 0 0
138 1 17.303865573978257 7.855724816569438 4.707521543205856 0 0 0
139 1 18.86954083270325 6.28487436221328 3.139281530587599 0 0 0
140 1 20.44009983671595 7.85847512401505 4.712086999830534 0 0 0
141 1 0.000456265113852402 9.432106902935084 3.140252486427345 0 0 0
142 1 1.5695120269417262 11.00520247094769 4.711958693605244 0 0 0
143 1 3.1403651043666128 9.432115175536293 3.13846614356863 0 0 0
144 1 4.708162745477702 11.00624217784285 4.70761851071475 0 0 0
145 1 6.283279334711039 9.432370392994954 3.135626509642002 0 0 0
146 1 7.8568391689659345 11.005620287486424 4.707868715648558 0 0 0
147 1 9.432493550454184 9.430730588293235 3.13936995107192 0 0 0
148 1 11.009980814552273 11.003510344724853 4.714330760652064 0 0 0
149 1 12.582310179126331 9.43017240710069 3.133062433545244 0 0 0
150 1 14.16664513032309 11.007257157690576 4.693381743705439 0 0 0
151 1 15.730759250881873 9.430639655924507 3.1336390225124444 0 0 0
152 1 17.30479793225313 11.006630425898777 4.7071248115798285 0 0 0
153 1 18.870773076676297 9.431779728646909 3.138890078654567 0 0 0
154 1 20.441202197234258 11.005396219482027 4.712187166832305 0 0 0
155 1 0.0010289410658660659 12.578079159747597 3.1410102337763766 0 0 0
156 1 1.570103985837918 14.150817206185348 4.713480160439703 0 0 0
157 1 3.1414494535745447 12.578390331769098 3.1399843693424256 0 0 0
158 1 4.708789490427194 14.153859519767169 4.709742620562103 0 0 0
159 1 6.285149779362989 12.578225835970516 3.1387593371681404 0 0 0
160 1 7.852047556000042 14.157533777210066 4.704636870880692 0 0 0
161 1 9.433054054120689 12.578111200220683 3.1417133474738925 0 0 0
162 1 11.00517416695136 14.15514446199629 4.707260957229282 0 0 0
163 1 12.581956574299138 12.58014327446382 3.133155490025589 0 0 0
164 1 14.166265917824427 14.165431417122582 4.6987459543545995 0 0 0
165 1 15.73042373065251 12.58141738648918 3.134286857354 0 0 0
166 1 17.304602388677733 14.15705981399825 4.708037111222649 0 0 0
167 1 18.87102491521874 12.579126840976041 3.1394769085189784 0 0 0
168 1 20.440947541015117 14.151566076048478 4.713354862796817 0 0 0
169 1 0.0006618695841821758 15.72308477634434 3.1420313679509513 0 0 0
170 1 1.5696882721207048 17.295358359927118 4.7142570495270855 0 0 0
171 1 3.1414143340870413 15.723717628599088 3.140929453235799 0 0 0
172 1 4.710749675301959 17.298449399583436 4.711619104446204 0 0 0
173 1 6.284418367206432 15.725424446000773 3.1390391904331945 0 0 0
174 1 7.858665945704766 17.297017438908334 4.714547614140099 0 0 0
175 1 9.43183664092164 15.724676207743373 3.141702218260831 0 0 0
176 1 11.004876332494378 17.296765282858953 4.714787925482823 0 0 0
177 1 12.578912769515046 15.725550992145433 3.1406568465012112 0 0 0
178 1 14.152273139897668 17.299526309511528 4.7137363632937355 0 0 0
179 1 15.728284411832997 15.728605648212168 3.1380222097806816 0 0 0
180 1 17.29639479069231 17.297491582031586 4.714415095581651 0 0 0
181 1 18.870093466977195 15.725241564196748 3.140707292932204 0 0 0
182 1 20.438195195885335 17.29538620439417 4.714987004241762 0 0 0
183 1 22.008897756782094 18.866359474457035 3.142965202550658 -1 0 0
184 1 1.5700531758152612 20.43715364455565 4.7150644410988996 0 0 0
185 1 3.1417358325105647 18.86681072900529 3.1420136695209417 0 0 0
186 1 4.71396056566962 20.437061370755938 4.714726268391329 0 0 0
187 1 6.287091345635547 18.86670107425597 3.1431012261474245 0 0 0
188 1 7.859864443507843 20.43720729133673 4.715927536625111 0 0 0
189 1 9.43232200948698 18.866710718517062 3.143961680184578 0 0 0
190 1 11.004603933504436 20.43770771877755 4.7164523455924465 0 0 0
191 1 12.577387716541608 18.867301904479884 3.1440849681831264 0 0 0
192 1 14.148958800195771 20.4384900416187 4.71670203828449 0 0 0
193 1 15.722848905054985 18.868429469295403 3.1433582381658653 0 0 0
194 1 17.293418200418678 20.43797632229266 4.7161831072657465 0 0 0
195 1 18.86663588128361 18.867286869209895 3.14325271069597 0 0 0
196 1 20.436844044907083 20.437603963911535 4.715655650892091 0 0 0
197 1 22.007578710936922 22.008335629549805 6.287571388267788 -1 -1 0
198 1 1.568405469553724 1.5691667881482443 7.859617644404757 0 0 0
199 1 3.140922640550812 22.007248902475272 6.286987081935961 0 -1 0
200 1 4.711231966082265 1.5666524044712236 7.859002636208362 0 0 0
201 1 6.286128390970957 22.006079813003087 6.287221737210343 0 -1 0
202 1 7.857891981230501 1.5661069355977237 7.85968844619338 0 0 0
203 1 9.432193742054622 22.007896655031594 6.2884666768472455 0 -1 0
204 1 11.00323854583885 1.5720586835048058 7.861282005248751 0 0 0
205 1 12.575888198364371 22.008999119121317 6.2892388825495065 0 -1 0
206 1 14.148157852152702 1.5701562713239845 7.860899994248048 0 0 0
207 1 15.720703911996626 22.008503698588843 6.288644680672296 0 -1 0
208 1 17.293138656179096 1.570365697196969 7.8602893237879945 0 0 0
209 1 18.864811835390057 22.008787552849377 6.28802069345213 0 -1 0
210 1 20.435986938034862 1.570395983893818 7.860035919779315 0 0 0
211 1 22.00676269563226 3.1409314691111794 6.286605784500197 -1 0 0
212 1 1.565955014617212 4.711500818638851 7.858581517010689 0 0 0
213 1 3.1375857215405727 3.1377178441746314 6.284750812991163 0 0 0
214 1 4.703622383829911 4.704661997529095 7.855776444741645 0 0 0
215 1 6.280436453616607 3.130812775091725 6.28135179245214 0 0 0
216 1 7.847609783968323 4.693899267015746 7.850734640996956 0 0 0
217 1 9.432219425904812 3.138696345629687 6.285698070035754 0 0 0
218 1 11.001241345868944 4.720112095350754 7.862924313945975 0 0 0
219 1 12.575369309586456 3.141300483645183 6.287972613670693 0 0 0
220 1 14.152615395683577 4.707038279249543 7.857115688745095 0 0 0
221 1 15.723182349769377 3.1385452114551198 6.2859929821588665 0 0 0
222 1 17.296273099482768 4.712156631232832 7.859017770187009 0 0 0
223 1 18.865829408621778 3.1411625520145177 6.286946955940266 0 0 0
224 1 20.436608340698307 4.713390982003328 7.859420438158674 0 0 0
225 1 22.006541814977492 6.285204985141286 6.285296946573523 -1 0 0
226 1 1.5646186631294388 7.857455320068152 7.857683767081368 0 0 0
227 1 3.130175974255902 6.280124428672017 6.280165333761153 0 0 0
228 1 4.690183709438996 7.8490671061370545 7.849170411802074 0 0 0
229 1 6.249821472286337 6.25069703975876 6.25041657192298 0 0 0
230 1 7.765158156433754 7.76962983997905 7.755922480843747 0 0 0
231 1 9.434727713648622 6.273526351609202 6.274146244340727 0 0 0
232 1 11.024730723173727 7.867731900472887 7.854797020303599 0 0 0
233 1 12.580863190681313 6.275957265444303 6.27746484630125 0 0 0
234 1 14.194523826781232 7.8200445452437854 7.815418317756599 0 0 0
235 1 15.738637855264233 6.272020511887644 6.272038959643717 0 0 0
236 1 17.305325634693737 7.8568036183140535 7.856014020780608 0 0 0
237 1 18.870436943847643 6.28433235287062 6.284505320455148 0 0 0
238 1 20.438724175529252 7.858798228077664 7.858858340451481 0 0 0
239 1 22.008994456695184 9.431864361403978 6.285142704770593 -1 0 0
240 1 1.568792701006422 11.00423382214524 7.858452061721816 0 0 0
241 1 3.135341377195889 9.431689321361723 6.282027743731363 0 0 0
242 1 4.707147560133224 11.003885623825086 7.856018824650711 0 0 0
243 1 6.267004157279039 9.433737809494383 6.270320998517355 0 0 0
244 1 7.842417463014466 11.03483534417099 7.831501192001043 0 0 0
245 1 9.400925066864248 9.40319553463358 6.2743134411445975 0 0 0
246 1 11.073911396494081 11.008593714895907 7.568430889120782 0 0 0
247 1 12.633040935784827 9.396633746851826 6.246889178846323 0 0 0
248 1 14.196193025629155 11.039965295869763 7.807140636958257 0 0 0
249 1 15.745814028986771 9.429741404707244 6.271656788356613 0 0 0
250 1 17.307895877013515 11.006616828446683 7.855071458169423 0 0 0
251 1 18.87379817857581 9.431743749775636 6.283203994666719 0 0 0
252 1 20.440766603477613 11.004872111475779 7.858915550884861 0 0 0
253 1 0.0003690727484491579 12.577839730534206 6.2861906753631915 0 0 0
254 1 1.5677350359252469 14.151156895231342 7.859090759349075 0 0 0
255 1 3.1376362671403055 12.577888065663311 6.284599806444634 0 0 0
256 1 4.701242708302766 14.155671172233221 7.856077386871917 0 0 0
257 1 6.269849830785186 12.584695950298261 6.274648943626769 0 0 0
258 1 7.818502023178723 14.182287617683688 7.830339392471574 0 0 0
259 1 9.410306485556884 12.603781468137575 6.280582138112552 0 0 0
260 1 11.01839242107494 14.149135026229164 7.841479831584225 0 0 0
261 1 12.624639142349503 12.618001081641108 6.243965264246354 0 0 0
262 1 14.16039556220199 14.160688450100473 7.855431601157639 0 0 0
263 1 15.7478694627817 12.592807775333643 6.269537965273826 0 0 0
264 1 17.301090507304533 14.15421310467997 7.8586604899205525 0 0 0
265 1 18.87401120908918 12.579886783620722 6.284332851819003 0 0 0
266 1 20.439426953906846 14.151257045647073 7.859568617706273 0 0 0
267 1 22.00860971366782 15.723295336419026 6.286927276576088 -1 0 0
268 1 1.5690432122095133 17.295562767797502 7.859767497911517 0 0 0
269 1 3.137825304690974 15.725127900320928 6.2851004866865585 0 0 0
270 1 4.710455165384191 17.298017135065074 7.8591507314391835 0 0 0
271 1 6.274115639504851 15.734897674185351 6.2768641702193975 0 0 0
272 1 7.857516001799998 17.2987016156064 7.861893152024602 0 0 0
273 1 9.431249737128653 15.728843465781557 6.285532622155323 0 0 0
274 1 11.00339455752628 17.291576154684012 7.863050116979172 0 0 0
275 1 12.582252815346775 15.73252053922811 6.282373809036521 0 0 0
276 1 14.148549399456 17.295010786258835 7.862875279955225 0 0 0
277 1 15.72761183324804 15.728775248621966 6.284805922250018 0 0 0
278 1 17.295146175855034 17.296572180372625 7.860202589238117 0 0 0
279 1 18.868697985097253 15.724591095981221 6.286761925164605 0 0 0
280 1 20.437516336580195 17.295399400681042 7.860048472629153 0 0 0
281 1 22.008160688099494 18.866428960402153 6.287634203571306 -1 0 0
282 1 1.5695176837367937 20.43741864738812 7.860060124965541 0 0 0
283 1 3.1410681800803157 18.866892615959515 6.287103338917141 0 0 0
284 1 4.713058867261209 20.437440595438513 7.8599975556356245 0 0 0
285 1 6.285860836457078 18.868079265860462 6.2875014016025474 0 0 0
286 1 7.859404860340634 20.436911099522884 7.861299946704742 0 0 0
287 1 9.432289794876393 18.866725024516498 6.288847918413738 0 0 0
288 1 11.003831422516706 20.436757148988182 7.86194922457145 0 0 0
289 1 12.576369782538993 18.867269054013164 6.289376906563437 0 0 0
290 1 14.148081513490963 20.437544425623983 7.861655121178824 0 0 0
291 1 15.72129292291898 18.867300166532534 6.289000825336084 0 0 0
292 1 17.29309110101835 20.438210563390413 7.860605433103117 0 0 0
293 1 18.86564507805324 18.866962307579268 6.28803284363432 0 0 0
294 1 20.43643582914948 20.437821590194773 7.860280385542192 0 0 0
295 1 22.007379124840753 22.008744977883634 9.432609484055437 -1 -1 0
296 1 1.568557828890486 1.5698192054953304 11.005310881828503 0 0 0
297 1 3.1405731015813476 22.007854521689392 9.432643142200625 0 -1 0
298 1 4.7114401317423384 1.567817919837386 11.0057100722459 0 0 0
299 1 6.285130049376002 22.007164158328017 9.432734620173019 0 -1 0
300 1 7.857505880882613 1.5674116519457644 11.005035443519736 0 0 0
301 1 9.43155288822976 22.00834929505892 9.433181001048426 0 -1 0
302 1 11.002889697726804 1.5712494113750353 11.005049677895945 0 0 0
303 1 12.575608851190857 22.00942415815919 9.433285627415845 0 -1 0
304 1 14.148084683178919 1.5711836366528682 11.004915139271292 0 0 0
305 1 15.720718419541493 22.00940196100439 9.432904999236676 0 -1 0
306 1 17.2930451199874 1.5711065667593451 11.005107903790806 0 0 0
307 1 18.864637224092622 22.00932455877181 9.432676443412502 0 -1 0
308 1 20.435990438421157 1.5709361995543245 11.005031427016617 0 0 0
309 1 22.006545887053175 3.1414758821887068 9.43242096157993 -1 0 0
310 1 1.5667365104007056 4.71243634187517 11.00544777341693 0 0 0
311 1 3.1377861803668354 3.1387615072048294 9.432281954678908 0 0 0
312 1 4.705770648827266 4.706974422674305 11.006795260001791 0 0 0
313 1 6.2801321540593795 3.1346776024759677 9.431680642228118 0 0 0
314 1 7.850675502501858 4.699528684817357 11.00643850179036 0 0 0
315 1 9.428880749141966 3.1429533160649794 9.431858760195732 0 0 0
316 1 10.998634838408952 4.713987397063826 11.006226199457055 0 0 0
317 1 12.574961371513265 3.1449667967867874 9.432830661066154 0 0 0
318 1 14.148572840676104 4.711174815744088 11.00544448741073 0 0 0
319 1 15.72192640306377 3.1413569134824004 9.432782185888057 0 0 0
320 1 17.29473110334968 4.713270226362804 11.005662189674705 0 0 0
321 1 18.865042350340257 3.1421014037159574 9.432555215451591 0 0 0
322 1 20.436306555861723 4.714074067251828 11.005113678572554 0 0 0
323 1 22.006307887373172 6.285588447624966 9.432147230930056 -1 0 0
324 1 1.5669413119303923 7.858450366043396 11.00468861041249 0 0 0
325 1 3.1332354597368726 6.2814360105833185 9.431565353012044 0 0 0
326 1 4.699846609390002 7.853121976081121 11.007050778825455 0 0 0
327 1 6.265267057746932 6.26983877975584 9.430332338351759 0 0 0
328 1 7.802865831544674 7.797450679252825 11.068346579108164 0 0 0
329 1 9.401107387157852 6.297098492702155 9.417379488704178 0 0 0
330 1 10.99927293096566 7.696549843277871 11.072885242859225 0 0 0
331 1 12.585606705919188 6.29525903540623 9.424004278184427 0 0 0
332 1 14.157892341028038 7.837200471688297 11.024812255184301 0 0 0
333 1 15.728577079826485 6.282540736550487 9.432772506474734 0 0 0
334 1 17.29654725000815 7.858866804993208 11.00457655630055 0 0 0
335 1 18.867477436723 6.285620010836289 9.432408777512624 0 0 0
336 1 20.43729443251122 7.859391051807712 11.004615638605145 0 0 0
337 1 22.007892832665217 9.431692401030801 9.431770988087882 -1 0 0
338 1 1.5687295134628274 11.003944953921405 11.004719939172361 0 0 0
339 1 3.136488526303507 9.42964187296809 9.429790279777391 0 0 0
340 1 4.703588998362437 11.002407815546814 11.003034596278724 0 0 0
341 1 6.274023144259901 9.414900969443577 9.421180592022916 0 0 0
342 1 7.817858253100001 11.024195849554397 11.019549707941897 0 0 0
343 1 9.0846780975548 9.171524963848185 9.316088797783195 0 0 0
344 1 11.144239172561134 11.21720547539433 11.383013516567166 0 0 0
345 1 12.851748547777209 9.422047357847694 9.363290078215286 0 0 0
346 1 14.170435110120037 11.030173109424458 11.036878502332016 0 0 0
347 1 15.72558576999719 9.433634427632107 9.427415758407273 0 0 0
348 1 17.301782448561838 11.005796347161514 11.006219920183957 0 0 0
349 1 18.868374125271643 9.432083024246309 9.431826643492801 0 0 0
350 1 20.43957165018357 11.004669459657899 11.004874563386611 0 0 0
351 1 22.008850216294235 12.57768424604974 9.43219519375287 -1 0 0
352 1 1.5681051575299967 14.150926785671356 11.005534674046064 0 0 0
353 1 3.1357088776280566 12.57816690806462 9.431255931793297 0 0 0
354 1 4.701310736041424 14.15549083140518 11.008355826407191 0 0 0
355 1 6.264488736584232 12.587963107237815 9.429422027222133 0 0 0
356 1 7.815744258984769 14.191377194408997 11.042855089160781 0 0 0
357 1 9.326608231521378 12.803740117488353 9.432838856997218 0 0 0
358 1 11.023242696843042 14.146564972474758 11.043532252279412 0 0 0
359 1 12.62289638184387 12.589065542463173 9.420830585494683 0 0 0
360 1 14.164134593076037 14.163129888178513 11.006092067194013 0 0 0
361 1 15.739012653653301 12.581901784149688 9.432500067437095 0 0 0
362 1 17.302399584272102 14.155174677416946 11.006277803113848 0 0 0
363 1 18.871535119423662 12.579140466023443 9.432506874231832 0 0 0
364 1 20.439870052942542 14.151369520970848 11.005397234528902 0 0 0
365 1 22.00824157682989 15.723466470941029 9.43259289502742 -1 0 0
366 1 1.5690248960977873 17.29581025333496 11.005698911756658 0 0 0
367 1 3.1373213404393083 15.72537628469577 9.432686268523806 0 0 0
368 1 4.709969883592349 17.298786768741476 11.00707451049424 0 0 0
369 1 6.275002373364001 15.732622350899122 9.433446767201675 0 0 0
370 1 7.85630142886782 17.30236849968707 11.007592774879186 0 0 0
371 1 9.430516947141829 15.708324957276119 9.43792937333506 0 0 0
372 1 11.004061355608151 17.293347507451106 11.00767877109125 0 0 0
373 1 12.571372097536019 15.712258575034385 9.436522834619476 0 0 0
374 1 14.150738759344032 17.297671929505704 11.004917339010627 0 0 0
375 1 15.726306787269639 15.726765190557842 9.43225437520075 0 0 0
376 1 17.296031020467908 17.297462378833213 11.00529437057688 0 0 0
377 1 18.868341375840085 15.72462702727887 9.43252581473476 0 0 0
378 1 20.437826821792605 17.295736793014587 11.005281432520922 0 0 0
379 1 22.00794497754104 18.866708603406185 9.432691247197361 -1 0 0
380 1 1.569499107948871 20.437863986639798 11.005361021132954 0 0 0
381 1 3.1405250227908943 18.867272848548833 9.432850464517747 0 0 0
382 1 4.712835180764432 20.43825222514331 11.005840083264678 0 0 0
383 1 6.284239979745446 18.86897651222767 9.433313241759855 0 0 0
384 1 7.858916200536239 20.438342269636035 11.005641853342443 0 0 0
385 1 9.431917257248262 18.86359007784359 9.434347567535495 0 0 0
386 1 11.003851219089524 20.43765575116554 11.005505130392573 0 0 0
387 1 12.575799301276176 18.864145858493924 9.434211150982673 0 0 0
388 1 14.148676511410171 20.438848201517768 11.005126092027615 0 0 0
389 1 15.721881486440777 18.867749145371214 9.432983981633583 0 0 0
390 1 17.293454042348582 20.438935886747295 11.005076266792166 0 0 0
391 1 18.865673206803827 18.867278158815147 9.432681940994255 0 0 0
392 1 20.436569344006795 20.438250383490303 11.00508298132959 0 0 0
393 1 22.00769182780491 22.009216915486054 12.57759136597904 -1 -1 0
394 1 1.5691970656430199 1.5704633142150715 14.15046734454438 0 0 0
395 1 3.14090761047075 22.008530972423138 12.578242247112232 0 -1 0
396 1 4.712074603484001 1.568417753353452 14.152031990609784 0 0 0
397 1 6.285649204067299 22.008060192646543 12.578508306584228 0 -1 0
398 1 7.857516037063857 1.5673919130735288 14.152872663283052 0 0 0
399 1 9.431562094286383 22.008372157184745 12.578577673040781 0 -1 0
400 1 11.004168693125074 1.5688373353768554 14.152836514666918 0 0 0
401 1 12.576119016213157 0.00032690718537396903 12.57791971305801 0 0 0
402 1 14.149750199613 1.5700794278585897 14.151303034079643 0 0 0
403 1 15.721131494993005 0.0006305576780435357 12.577378706805211 0 0 0
404 1 17.29384536700804 1.5713041222539217 14.15004118135092 0 0 0
405 1 18.865027137267298 0.0002993978030775404 12.57737414090036 0 0 0
406 1 20.43660820933284 1.571388645104076 14.1497503180623 0 0 0
407 1 22.007026410619584 3.1421867766022635 12.57771646398544 -1 0 0
408 1 1.5677092683550569 4.713493305783204 14.151200743107132 0 0 0
409 1 3.1387207989380106 3.1398469529218564 12.578927921004492 0 0 0
410 1 4.705008722665698 4.706681825716707 14.158056745103035 0 0 0
411 1 6.281795196720415 3.1351169635730876 12.580747052202314 0 0 0
412 1 7.848978715338754 4.701563969981571 14.163192066724514 0 0 0
413 1 9.429272807113417 3.1344403905536518 12.581736665367558 0 0 0
414 1 11.00408040721304 4.705763174359371 14.160678456785948 0 0 0
415 1 12.575754542563253 3.138594365390089 12.58004576063091 0 0 0
416 1 14.156751717516862 4.70576253329781 14.159532141341973 0 0 0
417 1 15.721753233989757 3.1414754915103886 12.578106243567882 0 0 0
418 1 17.297212257179787 4.712551438736082 14.152390519478764 0 0 0
419 1 18.865257660828508 3.1426561288783135 12.577543835136593 0 0 0
420 1 20.437265336560053 4.714768271721405 14.14996257768397 0 0 0
421 1 22.00714193281873 6.286695202136908 12.577547218928837 -1 0 0
422 1 1.5702660875249006 7.8594599946759685 14.150258587618005 0 0 0
423 1 3.13500757610101 6.283411896282036 12.580131357077073 0 0 0
424 1 4.712092263524933 7.859355776022368 14.152283174148401 0 0 0
425 1 6.2614666345259655 6.263710502516193 12.59873890445293 0 0 0
426 1 7.854256740970353 7.853006427501671 14.165973262063655 0 0 0
427 1 9.406798242392146 6.251864455680421 12.612942401169853 0 0 0
428 1 11.007639441619322 7.8516399158468335 14.1703753258432 0 0 0
429 1 12.592995926863699 6.262176362722421 12.607925397253126 0 0 0
430 1 14.163824855087022 7.849675817953058 14.168117789393076 0 0 0
431 1 15.729892881534953 6.280561666198032 12.584334900770774 0 0 0
432 1 17.29935019533845 7.858320394739498 14.1527939917836 0 0 0
433 1 18.867141950185 6.286783438433329 12.577651330660618 0 0 0
434 1 20.438955159122994 7.859540276315649 14.150082919302422 0 0 0
435 1 22.00922811504173 9.431857170036631 12.577581191267289 -1 0 0
436 1 1.571613279494741 11.004471814018359 14.150211920830538 0 0 0
437 1 3.140201389901102 9.431155243397484 12.578503566949768 0 0 0
438 1 4.714147308098535 11.004109559722853 14.150569719961126 0 0 0
439 1 6.285688011574883 9.432100608016903 12.577354758347095 0 0 0
440 1 7.862046292262202 11.006477335257054 14.150749540465851 0 0 0