LAMMPS data file via write_data, version 2 Aug 2023, timestep = 18, units = metal

693 atoms
3 atom types

0 22.009546999999998 xlo xhi
0 22.009546999999998 ylo yhi
0 22.009546999999998 zlo zhi

Masses

1 183.84
2 1.008
3 4.0026

Atoms # atomic

1 1 22.008989171791796 22.008918321140754 22.00884283762717 -1 -1 -1
2 1 1.5697547169024106 1.5692763140727364 1.5695504373129272 0 0 0
3 1 3.142767919064441 22.008471951475634 22.00897055824333 0 -1 -1
4 1 4.714060192431726 1.5689167281333964 1.5698402057444225 0 0 0
5 1 6.287397364030111 22.008607913007683 0.00020169061353494664 0 -1 0
6 1 7.859577778467403 1.5695739233822916 1.571040294572408 0 0 0
7 1 9.432303606792617 22.0090078289978 0.0008579907834869075 0 -1 0
8 1 11.004727695311752 1.5701822953210092 1.571744628702769 0 0 0
9 1 12.577210188174124 22.009453479495843 0.0010688061204683335 0 -1 0
10 1 14.14952982145917 1.5704933348792385 1.571796570645816 0 0 0
11 1 15.721905300804842 0.00013772841891392123 0.0007132417103376756 0 0 0
12 1 17.294277079649824 1.5701875877431404 1.5709352305597901 0 0 0
13 1 18.8661502399549 22.009447695465795 22.009438025483355 0 -1 -1
14 1 20.43744392570758 1.570066188775616 1.570356449822085 0 0 0
15 1 22.009000441088588 3.142383096634238 22.00767266939527 -1 0 -1
16 1 1.5697719237874264 4.713383982502006 1.568355813593013 0 0 0
17 1 3.141720468875306 3.141273461974131 22.007023117825387 0 0 -1
18 1 4.711565502831014 4.711020718365499 1.5655357431625696 0 0 0
19 1 6.286809615659357 3.141421689624372 22.00834015282893 0 0 -1
20 1 7.859138338871424 4.712346077502863 1.568238455386964 0 0 0
21 1 9.432211431206161 3.141783905046191 22.0094246531509 0 0 -1
22 1 11.00507257416294 4.712809963107595 1.569640072494446 0 0 0
23 1 12.577485312103972 3.1421610953109282 0.00017675843689658562 0 0 0
24 1 14.1505278381516 4.713073963166412 1.569477548287137 0 0 0
25 1 15.72242206577081 3.142228908917668 22.009080718552443 0 0 -1
26 1 17.296937803068825 4.711998662243984 1.5675167500680793 0 0 0
27 1 18.866840742443227 3.1421061460631052 22.007854976116484 0 0 -1
28 1 20.438457135159023 4.713682817183085 1.5690463496641551 0 0 0
29 1 0.00016794302362601967 6.28694169347964 22.007171217462943 0 0 -1
30 1 1.5707022374940849 7.859112592649912 1.56836541554213 0 0 0
31 1 3.1422210593555238 6.28663164460909 22.00657114521523 0 0 -1
32 1 4.712767114919483 7.858736710246083 1.5665710095106857 0 0 0
33 1 6.286099662933896 6.285863775808338 22.00607078820471 0 0 -1
34 1 7.858440937150912 7.858150684461259 1.565016340406476 0 0 0
35 1 9.432398292277249 6.286178769955073 22.008712032141975 0 0 -1
36 1 11.005299580491673 7.858345064620072 1.5694944641316473 0 0 0
37 1 12.577972972274912 6.286389965724902 22.008997421925656 0 0 -1
38 1 14.153448121319622 7.85746326846677 1.5647826842239951 0 0 0
39 1 15.72429852020223 6.285817207655525 22.006666375039888 0 0 -1
40 1 17.298405317183814 7.858100736767306 1.5668713277222557 0 0 0
41 1 18.867888816769575 6.286523188443392 22.007056952967748 0 0 -1
42 1 20.43956616181738 7.859055024540415 1.5686245212969363 0 0 0
43 1 0.0009499365097854243 9.432219838403093 22.007336994927602 0 0 -1
44 1 1.5714735338416153 11.004972071795745 1.5689672141085882 0 0 0
45 1 3.142860476415635 9.432217445082166 22.006994076135236 0 0 -1
46 1 4.713566959224959 11.005130629472944 1.5678945477188158 0 0 0
47 1 6.286699252212397 9.432394913553496 22.007303444832615 0 0 -1
48 1 7.859439897329673 11.004817339721546 1.5691928740640546 0 0 0
49 1 9.432904985260752 9.43246137237034 5.7602835161190843e-05 0 0 0
50 1 11.006080480860389 11.00508478463057 1.570516390717484 0 0 0
51 1 12.578845637078794 9.432305827247522 22.008491585217126 0 0 -1
52 1 14.154751398132909 11.005248550671189 1.5649178647786144 0 0 0
53 1 15.725732265741698 9.431912728987026 22.006665550708927 0 0 -1
54 1 17.299205465310475 11.005514065767828 1.567211475686771 0 0 0
55 1 18.868879160762337 9.432139403683239 22.007183481184757 0 0 -1
56 1 20.44029016397348 11.005123786088838 1.568987938265669 0 0 0
57 1 0.0013660825300415306 12.577635077398485 22.0079901993645 0 0 -1
58 1 1.5717533595082605 14.150335729820599 1.5699608178100877 0 0 0
59 1 3.14331527714198 12.577604087847105 22.00791542972456 0 0 -1
60 1 4.714109761420313 14.150655960404878 1.5693429947485276 0 0 0
61 1 6.287187562908507 12.577712429579359 22.008768967977442 0 0 -1
62 1 7.8593301668413345 14.151093188784353 1.569347708907106 0 0 0
63 1 9.432932387439616 12.578079682662803 0.0010191402609363623 0 0 0
64 1 11.005447093513625 14.152354360575051 1.5693070076072813 0 0 0
65 1 12.579219725598845 12.578748133307652 22.009322976414893 0 0 -1
66 1 14.153845327508652 14.15350068761439 1.567122529269352 0 0 0
67 1 15.726020967751985 12.578979897039092 22.0077910079105 0 0 -1
68 1 17.298941156029517 14.152812404880997 1.5682714504451325 0 0 0
69 1 18.869291674288124 12.578245291137144 22.00790105584381 0 0 -1
70 1 20.44033103651592 14.150943306385049 1.5698745646105354 0 0 0
71 1 0.0011905903332431113 15.722603358740297 22.008792292988844 0 0 -1
72 1 1.5712977002751727 17.294853557076724 1.5706609473170974 0 0 0
73 1 3.143320007188641 15.72252527002299 22.008877912252064 0 0 -1
74 1 4.713931469151561 17.29573334007983 1.5701807463685173 0 0 0
75 1 6.287007925950165 15.723193991067772 0.0001051796870507458 0 0 0
76 1 7.859463639131785 17.295647168027926 1.571558138317979 0 0 0
77 1 9.432366756344305 15.723979385955207 0.0011004239088520673 0 0 0
78 1 11.005131234895208 17.296206727225204 1.5719515680700984 0 0 0
79 1 12.578569367818009 15.72465643784905 0.0010389642154510013 0 0 0
80 1 14.151226272592643 17.297079008537562 1.571452557776536 0 0 0
81 1 15.725164729280234 15.725220426528747 6.300077614784096e-05 0 0 0
82 1 17.297045113066194 17.29752114602348 1.570623759314472 0 0 0
83 1 18.868891850498233 15.723912974970835 22.00893352594364 0 0 -1
84 1 20.439458260096192 17.295639801481528 1.5708286607519817 0 0 0
85 1 0.00038092783501076353 18.866546335538946 22.009255749899868 0 0 -1
86 1 1.5706599093130051 20.437372105456163 1.5710035188303213 0 0 0
87 1 3.1429649529264982 18.86655788929244 22.009384005250503 0 0 -1
88 1 4.714886233928479 20.43734676389514 1.571428433935787 0 0 0
89 1 6.287405570587379 18.866619066416096 0.0007188318853029404 0 0 0
90 1 7.859806701619619 20.437573638855845 1.572251608064959 0 0 0
91 1 9.43237190870893 18.867071640083868 0.001421223438682542 0 0 0
92 1 11.004754463117251 20.43806565152086 1.5727295930001535 0 0 0
93 1 12.577664716983229 18.867635456799725 0.0015723963173122266 0 0 0
94 1 14.14964127072789 20.438597292894578 1.5726977171562098 0 0 0
95 1 15.722952519798769 18.86806217284106 0.0010901880143398535 0 0 0
96 1 17.29438269316835 20.438756615235413 1.5720490878181204 0 0 0
97 1 18.867448531854265 18.867716006926837 0.00033335554071233506 0 0 0
98 1 20.437813002059848 20.43793477525758 1.5715584498479098 0 0 0
99 1 22.008265031157006 22.008179569451666 3.1429969246201637 -1 -1 0
100 1 1.5688323372548703 1.5686252649664678 4.714102709172468 0 0 0
101 1 3.1414380501384573 22.007083025993982 3.142055654082168 0 -1 0
102 1 4.711481979645774 1.5654204866212988 4.712283168131579 0 0 0
103 1 6.286973747030544 22.007453771331836 3.1430107915499836 0 -1 0
104 1 7.859212787706042 1.5676461192456135 4.714394536679142 0 0 0
105 1 9.432131211457856 22.008152645943913 3.1438330331186166 0 -1 0
106 1 11.004350221261022 1.569100239259295 4.715261241247124 0 0 0
107 1 12.576873397890514 22.00879998162305 3.144280595744063 0 -1 0
108 1 14.148664211166997 1.5695854472041673 4.715935342258408 0 0 0
109 1 15.721430056145007 22.009014860996867 3.144097382459104 0 -1 0
110 1 17.294327584918655 1.5685610302302635 4.714655815240357 0 0 0
111 1 18.865686629185266 22.008430504304716 3.1433851881498276 0 -1 0
112 1 20.436790141772686 1.5696670552493495 4.714899955229529 0 0 0
113 1 22.00767559402938 3.1406826195270043 3.141037893658814 -1 0 0
114 1 1.5661221438765138 4.710901236171511 4.71124399538546 0 0 0
115 1 3.1382165559722863 3.1375764538531152 3.1381109275012657 0 0 0
116 1 4.701366125618335 4.7010607362316215 4.701601492769064 0 0 0
117 1 6.285044459980559 3.138052364324939 3.139184124778785 0 0 0
118 1 7.856691471296906 4.70619519664038 4.7070623206719215 0 0 0
119 1 9.431936192187159 3.1397332844399135 3.1412044097676706 0 0 0
120 1 11.005374334610933 4.709045284754013 4.710106611376288 0 0 0
121 1 12.57748587158958 3.140509568556216 3.1420263969524163 0 0 0
122 1 14.152441787334649 4.708482833134071 4.710150100740802 0 0 0
123 1 15.723111023905592 3.139768967815811 3.141201787938613 0 0 0
124 1 17.300201102036688 4.708025320790741 4.708833959499232 0 0 0
125 1 18.867273845947462 3.140088661436228 3.140821551925926 0 0 0
126 1 20.438156663520093 4.7124293677049245 4.712889585390027 0 0 0
127 1 22.008784928702315 6.285805559725008 3.140273705251821 -1 0 0
128 1 1.567975128895486 7.85825339119525 4.711412018265204 0 0 0
129 1 3.1385297325475436 6.284287859170121 3.137606950446448 0 0 0
130 1 4.704881444728554 7.855915889685879 4.7050539624307355 0 0 0
131 1 6.279553356912987 6.279308718447527 3.1296569878932274 0 0 0
132 1 7.845335412838754 7.846514187136711 4.687525573084944 0 0 0
133 1 9.432469523108269 6.283110683143016 3.137328651490722 0 0 0
134 1 11.00562038977173 7.8562861798916455 4.710667736005889 0 0 0
135 1 12.578101341805253 6.284021651116093 3.138522219859221 0 0 0
136 1 14.169026745333449 7.8441669757103645 4.690520197191487 0 0 0
137 1 15.729798683414915 6.280007626848763 3.1331020136029437 0 0 0
138 1 17.304215990543575 7.855623537419383 4.707253522360686 0 0 0
139 1 18.86968189857621 6.284686555474681 3.139153231469261 0 0 0
140 1 20.44027340398011 7.858373002418353 4.712056170231497 0 0 0
141 1 0.00041079068312218617 9.431939345741194 3.1403107740483605 0 0 0
142 1 1.5694655029039721 11.004991459637424 4.712037387813222 0 0 0
143 1 3.1400767390654867 9.43181575148721 3.1385636244987536 0 0 0
144 1 4.7078449917400205 11.00603580074019 4.707479499242502 0 0 0
145 1 6.282708719790368 9.432095639678447 3.1354739865449557 0 0 0
146 1 7.855635686532342 11.006398777503454 4.705631448951403 0 0 0
147 1 9.432168639953144 9.430683310497036 3.138560691360019 0 0 0
148 1 11.009980943715783 11.004330933214668 4.712470085736565 0 0 0
149 1 12.582284089883187 9.430001384169381 3.1328496339946557 0 0 0
150 1 14.16713225861732 11.007411273666165 4.692206819341955 0 0 0
151 1 15.731113659042432 9.430533036096596 3.133384393950963 0 0 0
152 1 17.30520880706091 11.006743564663834 4.706932025571449 0 0 0
153 1 18.870971682799123 9.431740549814336 3.138832750592298 0 0 0
154 1 20.441398770582158 11.005383127256819 4.7122123453233495 0 0 0
155 1 0.0010261956307947343 12.578038422121509 3.141110708706999 0 0 0
156 1 1.5699631030469214 14.15076588283856 4.713555648329814 0 0 0
157 1 3.1410561732223106 12.578243155131213 3.139966389747964 0 0 0
158 1 4.707961217775149 14.154224469770593 4.709231571066272 0 0 0
159 1 6.284288996517618 12.57858856443397 3.1378841879970634 0 0 0
160 1 7.850277705097128 14.159859468307225 4.701857412867885 0 0 0
161 1 9.432687226684735 12.578936051106528 3.139495339247868 0 0 0
162 1 11.005871647896944 14.157360604411622 4.704245390678822 0 0 0
163 1 12.582464500752922 12.580818989093927 3.131673633073735 0 0 0
164 1 14.167835953744712 14.167123414399741 4.697316319142918 0 0 0
165 1 15.731051694753697 12.581787152372291 3.1338317872621753 0 0 0
166 1 17.305603356073004 14.157873748198645 4.707613508938532 0 0 0
167 1 18.87135469485456 12.579256320577583 3.1395042450170676 0 0 0
168 1 20.441272903548573 14.151718873039721 4.713458373509097 0 0 0
169 1 0.000708098987202241 15.723228034016046 3.142176685426419 0 0 0
170 1 1.5696604313504205 17.295359114718718 4.71446705249652 0 0 0
171 1 3.140960238408151 15.723893789767354 3.140905008761241 0 0 0
172 1 4.710285597370944 17.298741841356755 4.711532089447766 0 0 0
173 1 6.283446820146896 15.726306052088487 3.138255719723228 0 0 0
174 1 7.858232450897327 17.297907613748116 4.7140745801715935 0 0 0
175 1 9.43160040703138 15.72571107293366 3.140703559279743 0 0 0
176 1 11.005096910878592 17.297800081941713 4.714235901276693 0 0 0
177 1 12.579551501247039 15.726670666473728 3.1397508400509873 0 0 0
178 1 14.15291137526576 17.30047696067575 4.71348954918809 0 0 0
179 1 15.72905744716313 15.729442156277255 3.1377619503863627 0 0 0
180 1 17.296745400549998 17.297870815983952 4.714643529749284 0 0 0
181 1 18.870588234644583 15.725693687571246 3.1407255069688413 0 0 0
182 1 20.438439094849578 17.29555813444428 4.715206664299485 0 0 0
183 1 22.00895020581621 18.86646338311656 3.1431770245480304 -1 0 0
184 1 1.5700534922574114 20.437091847204734 4.715305318192817 0 0 0
185 1 3.141476278262934 18.866946627877226 3.1421474932594893 0 0 0
186 1 4.713771844026708 20.437009558809827 4.7149309592954545 0 0 0
187 1 6.286700797891128 18.86703652835407 3.143094852779838 0 0 0
188 1 7.859639689262401 20.437320453789816 4.716121323176623 0 0 0
189 1 9.432129490862392 18.8671416016723 3.14392152306138 0 0 0
190 1 11.004454697772104 20.437895239105124 4.716619340408742 0 0 0
191 1 12.5774923512702 18.86783581242494 3.1440739599110117 0 0 0
192 1 14.148948447293538 20.438640982355228 4.716902541458779 0 0 0
193 1 15.72312972941795 18.868903338606795 3.143462509910966 0 0 0
194 1 17.293517602480975 20.43791416613084 4.716393665208402 0 0 0
195 1 18.866853049434816 18.867507243721402 3.1434568105796203 0 0 0
196 1 20.436983212419502 20.437578178962855 4.715848616639625 0 0 0
197 1 22.00771298414864 22.00820155877911 6.287744587167755 -1 -1 0
198 1 1.568568879612 1.5690522561502214 7.859769830847124 0 0 0
199 1 3.140930204760193 22.00709760370261 6.287230508771142 0 -1 0
200 1 4.711319860914335 1.5665667103960081 7.8592284822242835 0 0 0
201 1 6.286007087376866 22.00585174501624 6.287473413258826 0 -1 0
202 1 7.85790144600638 1.5657507869272653 7.859941276185305 0 0 0
203 1 9.43204596368179 22.00780670677653 6.2887279462511065 0 -1 0
204 1 11.003231309383787 1.5717645736117312 7.861334662912599 0 0 0
205 1 12.575711731948475 22.00877475220729 6.2894398937060165 0 -1 0
206 1 14.148275493812758 1.5690507278269015 7.860922891458229 0 0 0
207 1 15.720742117026798 22.007974443219076 6.288754329048189 0 -1 0
208 1 17.29362878400745 1.5695678242080928 7.860221941839454 0 0 0
209 1 18.86501510632454 22.008504660390493 6.2881122828858125 0 -1 0
210 1 20.436305414922952 1.570117703088416 7.8601116220570635 0 0 0
211 1 22.00701716588784 3.140715336783505 6.286654454006191 -1 0 0
212 1 1.5662770509391757 4.711479497621923 7.858719302589465 0 0 0
213 1 3.1375802399841204 3.137603549821535 6.284907513978623 0 0 0
214 1 4.703733499111389 4.704801201642774 7.856004959381991 0 0 0
215 1 6.279883227168514 3.1302924560268903 6.281072098347667 0 0 0
216 1 7.8462212131430835 4.692148028145116 7.849354459508239 0 0 0
217 1 9.432173757832363 3.1387231861387095 6.285859447150236 0 0 0
218 1 11.002086564984447 4.720043973403366 7.862087997297941 0 0 0
219 1 12.575273025060612 3.1408632075650798 6.287732430391797 0 0 0
220 1 14.155800023071292 4.702898311507656 7.854382095133208 0 0 0
221 1 15.724283488212784 3.136882018333843 6.284913960852512 0 0 0
222 1 17.298107607008582 4.710690826889323 7.858136927792707 0 0 0
223 1 18.866502495870915 3.14049348116566 6.286609155482899 0 0 0
224 1 20.43729719666746 4.713068123798418 7.859353504673235 0 0 0
225 1 22.006855480333513 6.285084080516913 6.285335140761975 -1 0 0
226 1 1.5650613492340708 7.857456218126907 7.857828920028266 0 0 0
227 1 3.1304557734145075 6.280161161607937 6.280438898447953 0 0 0
228 1 4.690857625675656 7.849495064533012 7.8496472328325275 0 0 0
229 1 6.250217907208539 6.251033557833268 6.250915784760717 0 0 0
230 1 7.766327607164504 7.769862809203296 7.757509316192266 0 0 0
231 1 9.435144084116926 6.274590307184435 6.274213975376434 0 0 0
232 1 11.020578282658745 7.874490883701028 7.8637436067051105 0 0 0
233 1 12.579247594532058 6.276730493802102 6.277518764543508 0 0 0
234 1 14.199031381898767 7.8131886263392945 7.81126689241976 0 0 0
235 1 15.740542771382376 6.269918945432183 6.269975939519618 0 0 0
236 1 17.30659530984051 7.856522003290059 7.85556747642036 0 0 0
237 1 18.871164520519116 6.283983940829256 6.284196419796922 0 0 0
238 1 20.439258963938446 7.858768688998648 7.858805148000986 0 0 0
239 1 22.009219040642556 9.431776679727415 6.2852076447970955 -1 0 0
240 1 1.5691717113712453 11.004115543591833 7.858605361509061 0 0 0
241 1 3.135604525429771 9.431632839464127 6.282280726281459 0 0 0
242 1 4.707646183814316 11.004515537627954 7.855945093477089 0 0 0
243 1 6.267429815110694 9.434193861186856 6.270960415750586 0 0 0
244 1 7.8424983890554545 11.040841865739901 7.827804417634238 0 0 0
245 1 9.399313766902392 9.404312735616669 6.270671212719815 0 0 0
246 1 11.071593159036773 11.018996897420031 7.553550036139741 0 0 0
247 1 12.631976071351765 9.39655862945504 6.24629328465381 0 0 0
248 1 14.197450378648787 11.045590431697818 7.803819122137194 0 0 0
249 1 15.74601023090357 9.429902366190426 6.271249805282167 0 0 0
250 1 17.30815530593633 11.006812203993496 7.855041982844818 0 0 0
251 1 18.874119775445237 9.4318394076529 6.283044582959027 0 0 0
252 1 20.441090933817677 11.004871086363751 7.858984828274034 0 0 0
253 1 0.0005636602878861053 12.577748194949011 6.28631608445126 0 0 0
254 1 1.5681220143518395 14.150892657086125 7.859306975566489 0 0 0
255 1 3.1374920177743943 12.577825103839956 6.284537455912234 0 0 0
256 1 4.70175478428985 14.15535552527704 7.856324548094274 0 0 0
257 1 6.268768063690727 12.586038440901737 6.273060627395745 0 0 0
258 1 7.818120721947175 14.184948043044082 7.827748100294363 0 0 0
259 1 9.407695006860736 12.609966419369453 6.271924888468499 0 0 0
260 1 11.021163443602072 14.152328164392241 7.836687580383246 0 0 0
261 1 12.627339875452407 12.6216349267666 6.23947213741216 0 0 0
262 1 14.159701770911763 14.160723771000049 7.856414028739962 0 0 0
263 1 15.749659281873539 12.59450410690639 6.268061467259027 0 0 0
264 1 17.30173454829785 14.15488675761797 7.858597123654421 0 0 0
265 1 18.874558770358867 12.580096129815914 6.28436583816871 0 0 0
266 1 20.439909062973488 14.15138785854762 7.859714895861111 0 0 0
267 1 22.008858038864254 15.72327559830968 6.287136825803534 -1 0 0
268 1 1.5692482656316087 17.295427418512542 7.8599528427890295 0 0 0
269 1 3.1377961878850433 15.724966357878959 6.285280102049593 0 0 0
270 1 4.710590459716736 17.297792985954455 7.85936703577187 0 0 0
271 1 6.2734105852964746 15.735831359195272 6.276089424284893 0 0 0
272 1 7.857758798496234 17.298987199969673 7.861978095225006 0 0 0
273 1 9.431307055806782 15.731005611041699 6.283886515184057 0 0 0
274 1 11.003784589336785 17.29188452838493 7.863111024677615 0 0 0
275 1 12.583519906439893 15.734491850424755 6.2809519430717184 0 0 0
276 1 14.148484109245425 17.294796536099078 7.863541916344666 0 0 0
277 1 15.727987244606208 15.729246998049526 6.285123680378115 0 0 0
278 1 17.29550928017143 17.29687280825738 7.860482700856764 0 0 0
279 1 18.86916313976677 15.724929359271654 6.286931377687654 0 0 0
280 1 20.437855950875004 17.29552753621135 7.860269459504472 0 0 0
281 1 22.008319826675635 18.866414513275696 6.287868686829664 -1 0 0
282 1 1.5696598411739298 20.437306170970995 7.860261421535102 0 0 0
283 1 3.1410809767272747 18.866759855645018 6.287357264314963 0 0 0
284 1 4.713131992962505 20.437239679140784 7.860253076454684 0 0 0
285 1 6.285736395256653 18.868163471931943 6.287687530872298 0 0 0
286 1 7.8594897286621 20.436714596707255 7.861680722673688 0 0 0
287 1 9.432292427576115 18.867114966780683 6.288946014957997 0 0 0
288 1 11.003794073616792 20.43656303921263 7.862356354403377 0 0 0
289 1 12.576501897425185 18.867650115660453 6.289573170732949 0 0 0
290 1 14.147961561843417 20.43717720585554 7.8621233581992245 0 0 0
291 1 15.721351448560133 18.867333016319673 6.2894239295072305 0 0 0
292 1 17.293247122652055 20.438040553356284 7.8608827505346985 0 0 0
293 1 18.865876830619882 18.867070340417907 6.288280911168788 0 0 0
294 1 20.436638569588848 20.437781795260022 7.860490238890932 0 0 0
295 1 22.007599063914462 22.008664109163313 9.432762559966015 -1 -1 0
296 1 1.5688024968420005 1.5697773731569962 11.00536027040597 0 0 0
297 1 3.1407358822171743 22.00773953194952 9.432765599423846 0 -1 0
298 1 4.7116428576465905 1.56779488547445 11.005748836411774 0 0 0
299 1 6.28525067448458 22.006986957985067 9.432960570359205 0 -1 0
300 1 7.857690890851856 1.5673838020591617 11.005298658465202 0 0 0
301 1 9.431722657053758 22.00817753105461 9.433579759907309 0 -1 0
302 1 11.0030814431646 1.572042374975477 11.00545126634446 0 0 0
303 1 12.575437348046353 22.009047206884308 9.433725972580298 0 -1 0
304 1 14.148528556762612 1.5701351186475436 11.005209255551193 0 0 0
305 1 15.720913839942131 22.00878436140215 9.43317766906914 0 -1 0
306 1 17.29362104485931 1.5704767757255214 11.005423740653649 0 0 0
307 1 18.86492751656651 22.009096874673144 9.432892232548689 0 -1 0
308 1 20.436360380818385 1.5707769127538869 11.00522749873321 0 0 0
309 1 22.006922398580144 3.1413425603931935 9.432513916892576 -1 0 0
310 1 1.567107442634157 4.7124728075528735 11.00549193225895 0 0 0
311 1 3.138043424200172 3.138775443753586 9.432386559405945 0 0 0
312 1 4.706168417499429 4.707103648743212 11.006946401232327 0 0 0
313 1 6.280425986813157 3.134759771281628 9.431976778737837 0 0 0
314 1 7.851096429468238 4.69931804247315 11.007447232070392 0 0 0
315 1 9.429727064839737 3.1427316257742763 9.432413250822886 0 0 0
316 1 11.000675602897742 4.720052923319787 11.00750024754781 0 0 0
317 1 12.57519368351862 3.144171291016348 9.433097638100058 0 0 0
318 1 14.151938089223849 4.707634347577798 11.005660365496407 0 0 0
319 1 15.723213670321089 3.1396312217850975 9.43257174041239 0 0 0
320 1 17.296656552934987 4.712018956142799 11.005908786842665 0 0 0
321 1 18.865844806942636 3.141489361110334 9.432595534801237 0 0 0
322 1 20.4370167277929 4.713888718591697 11.005288109080348 0 0 0
323 1 22.006865377491344 6.285602511762006 9.432246384957724 -1 0 0
324 1 1.5675301894365086 7.85854178636959 11.00479208281994 0 0 0
325 1 3.133822418557245 6.281698727704614 9.431842524950957 0 0 0
326 1 4.701748868344388 7.853366269638327 11.007430637858757 0 0 0
327 1 6.265730666387629 6.27055240595711 9.431109117354014 0 0 0
328 1 7.810831075622428 7.7973211679626635 11.068164618745037 0 0 0
329 1 9.397424332622224 6.290272269152229 9.411179714829094 0 0 0
330 1 11.003115899779413 7.631712977928275 11.076484925947094 0 0 0
331 1 12.59666780256537 6.288879857304731 9.416435137890167 0 0 0
332 1 14.166223462182518 7.829046297446194 11.02504851345882 0 0 0
333 1 15.733419681308773 6.279358684311947 9.431529774610937 0 0 0
334 1 17.29809411285028 7.858856653694937 11.004490916282867 0 0 0
335 1 18.868921736962665 6.285202038374493 9.432330843916573 0 0 0
336 1 20.437728977843847 7.859600023189225 11.004709217151063 0 0 0
337 1 22.00829214342998 9.431667244105814 9.431842547756016 -1 0 0
338 1 1.5691929835615448 11.00387341471209 11.004790838815792 0 0 0
339 1 3.137140995784561 9.429785671872082 9.43017279087677 0 0 0
340 1 4.705192004346293 11.00322318789478 11.003524671798441 0 0 0
341 1 6.273490792259186 9.417357758922781 9.42321346861083 0 0 0
342 1 7.82602664077956 11.029436564299287 11.023562170751314 0 0 0
343 1 9.064628835008735 9.19631615017515 9.315248721115553 0 0 0
344 1 11.114566276278541 11.265103328593835 11.397564517333906 0 0 0
345 1 12.874821064757928 9.41862899396696 9.339156241661808 0 0 0
346 1 14.176684955906644 11.036016328585509 11.036457340078945 0 0 0
347 1 15.724615565859725 9.433242907657045 9.427499507084608 0 0 0
348 1 17.302597360040828 11.006082722763677 11.006101125634862 0 0 0
349 1 18.868651249482856 9.432175239048577 9.431597231749434 0 0 0
350 1 20.439801758822544 11.004639538472167 11.004978460763542 0 0 0
351 1 22.009324629978078 12.57757765406046 9.432336724632776 -1 0 0
352 1 1.5684639156601896 14.150784864196405 11.005552216017595 0 0 0
353 1 3.1367365851190363 12.577898032836055 9.431477094453736 0 0 0
354 1 4.701864453893977 14.15541488184558 11.00806406822718 0 0 0
355 1 6.267854091261018 12.587296262047856 9.429979978994707 0 0 0
356 1 7.817650207285911 14.18990280188215 11.041772840223791 0 0 0
357 1 9.330472823855642 12.805292206118713 9.424659713437187 0 0 0
358 1 11.023066165168663 14.141876302507223 11.045142484780825 0 0 0
359 1 12.618549239532465 12.581817825741728 9.42196481050556 0 0 0
360 1 14.164119052693275 14.16350215732416 11.005085607526736 0 0 0
361 1 15.74005541913297 12.583510472877764 9.431716036303055 0 0 0
362 1 17.303068971019965 14.155733241848035 11.006466020877221 0 0 0
363 1 18.87214607157662 12.579464001270122 9.432515590686885 0 0 0
364 1 20.440346939687846 14.151518186572327 11.00557194830174 0 0 0
365 1 22.008618888337068 15.723443414934597 9.43273329123226 -1 0 0
366 1 1.5693248627112104 17.295718915839988 11.005766855720664 0 0 0
367 1 3.1376319140520823 15.725144503663813 9.432732965983051 0 0 0
368 1 4.710199330964659 17.298533078209722 11.007087502233581 0 0 0
369 1 6.275565008182082 15.732268278341483 9.433527005345823 0 0 0
370 1 7.856671765130139 17.30167903500313 11.00756362567525 0 0 0
371 1 9.431601058799602 15.7069525352507 9.437611545134475 0 0 0
372 1 11.004347217167004 17.291893504966122 11.008024115053194 0 0 0
373 1 12.5708163849076 15.710137258768732 9.437204088430706 0 0 0
374 1 14.15078827933947 17.297346188757658 11.005258146165882 0 0 0
375 1 15.726793411301356 15.727270614350857 9.43242765772997 0 0 0
376 1 17.296491181786024 17.297761652098625 11.005631895441676 0 0 0
377 1 18.86886810691677 15.724947415207032 9.43275362581868 0 0 0
378 1 20.438258342639603 17.295910441870195 11.005494414592622 0 0 0
379 1 22.008219646851607 18.86670017760627 9.432864092046223 -1 0 0
380 1 1.569748727432677 20.43780371378146 11.005434188360896 0 0 0
381 1 3.1407182173116603 18.867083166113144 9.432983545177771 0 0 0
382 1 4.713035749982518 20.43807006866205 11.005897650176149 0 0 0
383 1 6.284419614253678 18.86866198712394 9.433538748965331 0 0 0
384 1 7.859124620117449 20.43803691920543 11.005805317299192 0 0 0
385 1 9.432203578831132 18.862970810417256 9.434790172834932 0 0 0
386 1 11.003929074649125 20.437277513944817 11.005828922205765 0 0 0
387 1 12.575780232252303 18.863476630042523 9.434776546401942 0 0 0
388 1 14.148688130334357 20.438438195859348 11.00553015593797 0 0 0
389 1 15.72203568980957 18.86767672894313 9.433412906892023 0 0 0
390 1 17.29371425277741 20.43885187046933 11.005431308068456 0 0 0
391 1 18.86599585435034 18.867393178487507 9.432966134681346 0 0 0
392 1 20.43686646782368 20.43828462926337 11.005298713982691 0 0 0
393 1 22.00796906528961 22.009229407725176 12.577695045365038 -1 -1 0
394 1 1.5693996935238794 1.570472113458389 14.150433599712805 0 0 0
395 1 3.1411279993710504 22.008492812875662 12.57818710915768 0 -1 0
396 1 4.712172915057355 1.5684024221234005 14.151931582555157 0 0 0
397 1 6.285809480776365 22.007965423135907 12.57849913662274 0 -1 0
398 1 7.857688781631671 1.5673819673041884 14.152876764411909 0 0 0
399 1 9.431793893648972 22.00848850648981 12.57863199671669 0 -1 0
400 1 11.004172867621303 1.56867168858433 14.153323125457064 0 0 0
401 1 12.57605800300455 3.090361820177667e-05 12.578199088612706 0 0 0
402 1 14.150026064771124 1.5693860762407625 14.151959117214195 0 0 0
403 1 15.721374968250114 0.00022902026515588553 12.57780986382867 0 0 0
404 1 17.294335801180758 1.570959754533843 14.150642374443763 0 0 0
405 1 18.86535370331616 0.0002207142462369408 12.577704810257957 0 0 0
406 1 20.436942194730147 1.571358724580648 14.14999940061457 0 0 0
407 1 22.007359847374822 3.1421581042748814 12.577827612257355 -1 0 0
408 1 1.5678137779336065 4.713574653326795 14.15115245150449 0 0 0
409 1 3.138912190045782 3.139885372240579 12.578893377511445 0 0 0
410 1 4.704951335424391 4.706886223354899 14.15802157076455 0 0 0
411 1 6.281880427903271 3.1351849545779897 12.580932961351706 0 0 0
412 1 7.847680559071302 4.700358606564817 14.165211893987257 0 0 0
413 1 9.43004798113601 3.1352687279030533 12.581949622107501 0 0 0
414 1 11.004528216207888 4.704940285519544 14.162865095004337 0 0 0
415 1 12.576344052702712 3.1376082324656154 12.580639299867574 0 0 0
416 1 14.159932344418182 4.702889041510446 14.162915768051885 0 0 0
417 1 15.723029225243353 3.1401286893662226 12.57891990879591 0 0 0
418 1 17.298564969682793 4.711988395562534 14.153506787437964 0 0 0
419 1 18.865977373470137 3.1422904751769947 12.57799816335438 0 0 0
420 1 20.43763857660353 4.714804600217045 14.150229794071931 0 0 0
421 1 22.007436354701124 6.286814545475702 12.577606480887821 -1 0 0
422 1 1.5701311727208238 7.859587218630211 14.15020093312506 0 0 0
423 1 3.135353632037344 6.28362283961872 12.58004604347853 0 0 0
424 1 4.711702255895733 7.859740099408638 14.152429469308895 0 0 0
425 1 6.261983264416384 6.264679892749873 12.598615887190247 0 0 0
426 1 7.850014714447444 7.851086148030905 14.171427517405592 0 0 0
427 1 9.403347094244594 6.252052819892479 12.620929785793264 0 0 0
428 1 11.006537557280154 7.850172986246932 14.17194477531078 0 0 0
429 1 12.604687987955831 6.25550825618289 12.617245943609543 0 0 0
430 1 14.16092344771656 7.851057072594581 14.16478557517557 0 0 0
431 1 15.73387574225839 6.278148356348938 12.585879942724638 0 0 0
432 1 17.297708832285064 7.8597624914456015 14.151675025064177 0 0 0
433 1 18.868058655618945 6.2867397051767755 12.577976921114125 0 0 0
434 1 20.438503053736234 7.8599115978688365 14.150014321658062 0 0 0
435 1 22.009199541337715 9.431918944008078 12.577618415738831 -1 0 0
436 1 1.5713079421389473 11.004323375255456 14.15031867986673 0 0 0
437 1 3.1408381619896146 9.431278212304203 12.578289034113673 0 0 0
438 1 4.713268791350529 11.003880832352273 14.15120170596313 0 0 0
439 1 6.287597199149619 9.433103714768027 12.576138540774133 0 0 0
440 1 7.858252780248475 11.006996512693053 14.155053320180777 0 0 0