LAMMPS data file via write_data, version 2 Aug 2023, timestep = 18, units = metal

694 atoms
3 atom types

0 22.009546999999998 xlo xhi
0 22.009546999999998 ylo yhi
0 22.009546999999998 zlo zhi

Masses

1 183.84
2 1.008
3 4.0026

Atoms # atomic

1 1 5.081822867506493e-05 22.008762664117214 22.008412208751132 0 -1 -1
2 1 1.5705308899656143 1.5690752778266126 1.5690137101758648 0 0 0
3 1 3.1426033290827737 22.008823846292973 22.00864318151323 0 -1 -1
4 1 4.713902236503145 1.5686660477288927 1.5692013354437826 0 0 0
5 1 6.2870578777927815 22.008958191698145 22.009389556027433 0 -1 -1
6 1 7.859399620857663 1.5690555530892845 1.5702400771839502 0 0 0
7 1 9.432153915916485 22.008957807758634 0.00035386781341311573 0 -1 0
8 1 11.004839615973959 1.5691960993351484 1.570587955411316 0 0 0
9 1 12.57743602358865 22.008935155551857 0.00041632562446823417 0 -1 0
10 1 14.150235073916605 1.5691280259972804 1.5703859796634492 0 0 0
11 1 15.72252572228496 22.0088878823798 3.077822231745131e-06 0 -1 0
12 1 17.295597558665996 1.5687282164923437 1.569453304857699 0 0 0
13 1 18.866968960250862 22.008745878672077 22.008828292635354 0 -1 -1
14 1 20.439145794328848 1.569018530816114 1.5690774108385617 0 0 0
15 1 8.813208991053705e-05 3.1421343542052043 22.007039498303815 0 0 -1
16 1 1.5700425271287928 4.713026401932223 1.5677596623372185 0 0 0
17 1 3.141537479132722 3.141055793695768 22.006405801005876 0 0 -1
18 1 4.710577969724284 4.7098519622961215 1.5643595923006912 0 0 0
19 1 6.286339683924605 3.1409000561918257 22.007528449631923 0 0 -1
20 1 7.858277845918297 4.710792324707561 1.5666380460049387 0 0 0
21 1 9.43192682068791 3.140973070392809 22.008457790781584 0 0 -1
22 1 11.004840260726588 4.711039723053945 1.5676078492580072 0 0 0
23 1 12.577678174175945 3.1410155436380665 22.008574367373228 0 0 -1
24 1 14.151282261465802 4.7111110911558205 1.5669953774818048 0 0 0
25 1 15.723233440219062 3.140973395247974 22.007809916522636 0 0 -1
26 1 17.298874754947892 4.71015886914125 1.5647353242002173 0 0 0
27 1 18.86810676438654 3.1410584709916187 22.0066426131286 0 0 -1
28 1 20.439729972102366 4.713027724889976 1.567789460796649 0 0 0
29 1 0.00011385355221671933 6.286772499438249 22.00666416557247 0 0 -1
30 1 1.5701459323777727 7.858834668525702 1.5679552822154772 0 0 0
31 1 3.141400476327419 6.286186304020781 22.006046659304435 0 0 -1
32 1 4.710946027568183 7.8578340232259185 1.565562573911289 0 0 0
33 1 6.284573048630873 6.284606418394218 22.004592775781756 0 0 -1
34 1 7.855561613706489 7.855882438553734 1.5614168465172567 0 0 0
35 1 9.431677034269942 6.285045699049687 22.007399275955617 0 0 -1
36 1 11.004766889507104 7.857054845382216 1.5671451325349344 0 0 0
37 1 12.577934117653056 6.2851436178653 22.007667335229943 0 0 -1
38 1 14.153518951421116 7.8565084512686445 1.5624087338978832 0 0 0
39 1 15.724930706989594 6.284857791811611 22.005219556659252 0 0 -1
40 1 17.298665971273632 7.858054388784066 1.5656851742619504 0 0 0
41 1 18.868309449022394 6.286232309002428 22.006173144867773 0 0 -1
42 1 20.439738741955292 7.858866257243042 1.5679306457569964 0 0 0
43 1 0.00011849212880215093 9.432052495563903 22.007108029313198 0 0 -1
44 1 1.5702282423014795 11.004842474695456 1.5687535312087046 0 0 0
45 1 3.1413015517172753 9.431903465512395 22.00672277568231 0 0 -1
46 1 4.711106422979664 11.005077300823693 1.567053389451774 0 0 0
47 1 6.284300181683813 9.431658216238532 22.006230205492987 0 0 -1
48 1 7.855717795676594 11.004648919563435 1.5656479710907776 0 0 0
49 1 9.431062283324449 9.431605980943782 22.007653920526547 0 0 -1
50 1 11.004677476765469 11.004691942602582 1.5668776201054675 0 0 0
51 1 12.578435424043144 9.431690729951926 22.008363594701457 0 0 -1
52 1 14.15314719794138 11.004693911948971 1.566801064865853 0 0 0
53 1 15.725211976810485 9.4318935458045 22.006698511126363 0 0 -1
54 1 17.29849671482634 11.00523617719197 1.5672042161978375 0 0 0
55 1 18.868425658442003 9.432021676702814 22.0068085198768 0 0 -1
56 1 20.43963980599853 11.00492139652012 1.5687626316589238 0 0 0
57 1 9.13530519791346e-05 12.577456388141218 22.00800538845281 0 0 -1
58 1 1.5702730578656259 14.150430534708585 1.569848351607136 0 0 0
59 1 3.1412905343569397 12.577733195236632 22.007844314775806 0 0 -1
60 1 4.711405101125873 14.15178500472113 1.5683770354132904 0 0 0
61 1 6.284372492343119 12.578311899257901 22.008013750851482 0 0 -1
62 1 7.85588486685814 14.153536212450152 1.5658886138736976 0 0 0
63 1 9.430848313325923 12.578709444887128 22.009031957841625 0 0 -1
64 1 11.004989198064443 14.152866726294848 1.5674447107787766 0 0 0
65 1 12.578675454250666 12.578622268664798 0.0003144384422166477 0 0 0
66 1 14.153086150875232 14.152685461204547 1.5675690717952053 0 0 0
67 1 15.725024881626993 12.578268759032952 22.00861903867671 0 0 -1
68 1 17.297936308681294 14.151588904214881 1.5688759225981914 0 0 0
69 1 18.868351232727598 12.5778266663776 22.00797199054072 0 0 -1
70 1 20.439442973301695 14.15046908641721 1.569895918484345 0 0 0
71 1 2.202176203968103e-05 15.722441104917767 22.008878144963646 0 0 -1
72 1 1.5702757266186238 17.295211789111892 1.5704998042003504 0 0 0
73 1 3.1413305395318205 15.723256880513162 22.00889428152287 0 0 -1
74 1 4.711854858785774 17.297509825151458 1.5693374474953614 0 0 0
75 1 6.2844770597170445 15.725049439129267 22.009081376046574 0 0 -1
76 1 7.858120497106555 17.297430152454695 1.5702858738642982 0 0 0
77 1 9.431374113697334 15.725095747414624 0.0005544648638821103 0 0 0
78 1 11.00502046245312 17.296955769911886 1.5709525121258456 0 0 0
79 1 12.578459210102228 15.724939787387074 0.0008584150586835064 0 0 0
80 1 14.151572505847673 17.296990247084867 1.570812656660172 0 0 0
81 1 15.724827668873784 15.724590546701812 0.0002820838885929869 0 0 0
82 1 17.297302879736826 17.296919683878535 1.5700030024633056 0 0 0
83 1 18.868145297848592 15.723150098407421 22.009096137286456 0 0 -1
84 1 20.4392111042049 17.29511982045206 1.5706031500749649 0 0 0
85 1 22.009522064936043 18.866504669534933 22.009168231394973 -1 0 -1
86 1 1.5707920776061584 20.437628572759277 1.5707202730805758 0 0 0
87 1 3.141753943008348 18.867495798709154 22.00935404083146 0 0 -1
88 1 4.714307575590155 20.43822028809218 1.57097612586664 0 0 0
89 1 6.286312540502241 18.867896050151682 0.0004893648758984183 0 0 0
90 1 7.859505347871722 20.43818484539184 1.5717060079314684 0 0 0
91 1 9.431958751651536 18.86781151116384 0.001130692345697938 0 0 0
92 1 11.004893121346344 20.438050385617004 1.5719933826352357 0 0 0
93 1 12.577783661119561 18.867724797480555 0.0012378638240257973 0 0 0
94 1 14.150180650697035 20.43804626696179 1.5718620882781675 0 0 0
95 1 15.723238833585619 18.867650477873788 0.0007736171298947948 0 0 0
96 1 17.295137128575185 20.437969311648246 1.5712509756118727 0 0 0
97 1 18.867669813023028 18.867282079832513 6.548232658651594e-05 0 0 0
98 1 20.43873419237169 20.437555611179203 1.5708120494201008 0 0 0
99 1 2.0007345641040576e-05 22.007805056521516 3.142388843685169 0 -1 0
100 1 1.5704072018972002 1.5683864825786318 4.713734410161696 0 0 0
101 1 3.141995817174598 22.00727587074056 3.141843376805049 0 -1 0
102 1 4.712377331462372 1.5654149967678763 4.712263552915035 0 0 0
103 1 6.286962737223016 22.007664596089185 3.142519503510743 0 -1 0
104 1 7.859614651084512 1.5666907210241279 4.713860196721424 0 0 0
105 1 9.43232726004367 22.007796631570784 3.1430058424364846 0 -1 0
106 1 11.005022409214622 1.5672670489425062 4.713886240207459 0 0 0
107 1 12.577513920826467 22.00778685990908 3.143058709623123 0 -1 0
108 1 14.150132533513247 1.5669566725279669 4.714010525713774 0 0 0
109 1 15.722582412239301 22.007583727818666 3.142727129055497 0 -1 0
110 1 17.297213929947247 1.5654570937675667 4.712367279516623 0 0 0
111 1 18.86753441499025 22.007182789099478 3.1419577313286022 0 -1 0
112 1 20.439217543538366 1.5683859742034116 4.713774844232255 0 0 0
113 1 0.0001348726832321192 3.1398195696799065 3.139975818336934 0 0 0
114 1 1.5680364317427016 4.710483773788174 4.710866155822773 0 0 0
115 1 3.1389500998242217 3.137266711038691 3.13774875625721 0 0 0
116 1 4.70200512786401 4.700678780431609 4.701643558260506 0 0 0
117 1 6.284452427224845 3.136570077027956 3.138077722772046 0 0 0
118 1 7.854846117936608 4.7022233199056975 4.704720786521362 0 0 0
119 1 9.431759437911964 3.1378896966070022 3.1396429541042785 0 0 0
120 1 11.004982259414549 4.705048856406736 4.706650441628804 0 0 0
121 1 12.578035633617024 3.1380925371266146 3.139740496186937 0 0 0
122 1 14.154392424315084 4.703480238752854 4.705253336946887 0 0 0
123 1 15.724966293147379 3.137030976050819 3.138449405567406 0 0 0
124 1 17.308237208759273 4.700512002795591 4.701296760722633 0 0 0
125 1 18.870832358470896 3.137189003756814 3.1377400087306837 0 0 0
126 1 20.44217075141148 4.710426887917852 4.710779723249915 0 0 0
127 1 0.00029892141772363135 6.285434648186564 3.1395664555598994 0 0 0
128 1 1.5686553854561658 7.858103043310829 4.711325201940457 0 0 0
129 1 3.138155796171852 6.283710708520183 3.1371391385662366 0 0 0
130 1 4.703442294575151 7.855104463373527 4.704813657524209 0 0 0
131 1 6.276520330625737 6.276070837317844 3.1268120885491397 0 0 0
132 1 7.836811340422231 7.837958134789535 4.679129726775927 0 0 0
133 1 9.431281614090322 6.280282442281826 3.133995009079386 0 0 0
134 1 11.004866664737152 7.852638458563909 4.704196199667249 0 0 0
135 1 12.57830126155709 6.280692314560312 3.1343596494307873 0 0 0
136 1 14.170294327696848 7.841173933450351 4.681133839096726 0 0 0
137 1 15.732432864683213 6.2771612906933125 3.1275033578483287 0 0 0
138 1 17.307045006378964 7.855005670747964 4.7039982986009505 0 0 0
139 1 18.87184105930356 6.283717308227325 3.1369888165115043 0 0 0
140 1 20.44211367696652 7.85803310789191 4.711090032367548 0 0 0
141 1 0.00038175479733820224 9.431743832383157 3.139932384196641 0 0 0
142 1 1.5691505043030218 11.00494548986373 4.712013754600096 0 0 0
143 1 3.13881416016713 9.431533451013808 3.138190345165213 0 0 0
144 1 4.705575286092148 11.006152365620224 4.7069201852935585 0 0 0
145 1 6.278912262564606 9.430798897045142 3.1330709489374726 0 0 0
146 1 7.846949424773259 11.006568952567083 4.697798859489956 0 0 0
147 1 9.426666541977701 9.427603659452776 3.1299913443024843 0 0 0
148 1 11.00280464661308 11.002475818406994 4.694613172560149 0 0 0
149 1 12.581479151283 9.428153907746958 3.132266336740173 0 0 0
150 1 14.160453110779414 11.006174060516216 4.699373504819065 0 0 0
151 1 15.730360871706003 9.431235349788441 3.133205176737413 0 0 0
152 1 17.30507415171931 11.006299017783897 4.706311324905731 0 0 0
153 1 18.87136028640091 9.431622976463801 3.1379963105494584 0 0 0
154 1 20.441741096244247 11.004996545750602 4.71182869116454 0 0 0
155 1 0.0003203273047854831 12.577823286766177 3.140993073204131 0 0 0
156 1 1.5691692208861656 14.15088964881443 4.713545856767541 0 0 0
157 1 3.139219906093637 12.57853628628977 3.1395431023861438 0 0 0
158 1 4.704853676291399 14.155949836750063 4.708128511073807 0 0 0
159 1 6.27998244279996 12.580145350330273 3.1349433878546367 0 0 0
160 1 7.840440536609956 14.169212045851305 4.692426199713878 0 0 0
161 1 9.42713321002027 12.581479375849545 3.129997061209067 0 0 0
162 1 11.005862796627225 14.159261044573011 4.697547811880978 0 0 0
163 1 12.581257374619819 12.580501028047166 3.133494478540057 0 0 0
164 1 14.165963114954701 14.164705171105247 4.696888628012612 0 0 0
165 1 15.729034259666873 12.579672421507093 3.135830033350851 0 0 0
166 1 17.304848453880645 14.155673094032446 4.7083294101579485 0 0 0
167 1 18.87078710541821 12.578662374718538 3.1395318797105816 0 0 0
168 1 20.441164363507383 14.150935228709034 4.713508285902191 0 0 0
169 1 0.00011792749695566088 15.722980484660116 3.142050404787439 0 0 0
170 1 1.5698259858901156 17.295699055253003 4.714292190598682 0 0 0
171 1 3.1391382558565577 15.72483974864674 3.1403853187660777 0 0 0
172 1 4.709314146058496 17.300060468710683 4.711176570102071 0 0 0
173 1 6.27933344768173 15.730143448186615 3.1351078857646884 0 0 0
174 1 7.855637075740101 17.302242662036274 4.711310060480497 0 0 0
175 1 9.430209184262385 15.728135403477772 3.1374088046387465 0 0 0
176 1 11.005373305419596 17.299459515723427 4.712296548332487 0 0 0
177 1 12.579989574706353 15.727573824598553 3.13815495099558 0 0 0
178 1 14.15379410523169 17.300570528385478 4.712380440180792 0 0 0
179 1 15.72915012619848 15.728515962727954 3.136818380518955 0 0 0
180 1 17.300136126053726 17.299496258748515 4.711651724172894 0 0 0
181 1 18.87038122086421 15.72467850260393 3.1406273051706313 0 0 0
182 1 20.43994504484836 17.295646558332862 4.714345490237728 0 0 0
183 1 22.009542842956563 18.86649756386357 3.1426702036346543 -1 0 0
184 1 1.5709407907134947 20.437269992931395 4.715021053237443 0 0 0
185 1 3.1410874222081917 18.86770617492892 3.141900111819131 0 0 0
186 1 4.714121426832193 20.437595432562397 4.714845225422015 0 0 0
187 1 6.285474927104997 18.86903555260344 3.141993919216525 0 0 0
188 1 7.8597536101706815 20.43829245084937 4.715591245172656 0 0 0
189 1 9.43200156848942 18.868222753318108 3.1428724207175867 0 0 0
190 1 11.005080220394804 20.43790022446193 4.715691189341809 0 0 0
191 1 12.578059814117843 18.86798222594913 3.1430652363355223 0 0 0
192 1 14.149999679023521 20.437845925139627 4.715847484105221 0 0 0
193 1 15.723918012221226 18.868339171261304 3.1425470105456457 0 0 0
194 1 17.295380329991207 20.437377818184853 4.715028171127564 0 0 0
195 1 18.86834983004706 18.867479215042643 3.142111744833203 0 0 0
196 1 20.43859873550976 20.43722610365511 4.715068820117105 0 0 0
197 1 1.0153616732520233e-05 22.00788851740192 6.287289736705308 0 -1 0
198 1 1.5705741757369027 1.5689491977878463 7.859601455574058 0 0 0
199 1 3.14211845671772 22.007336151676622 6.287098918075393 0 -1 0
200 1 4.712811199620851 1.56673484338763 7.859262324943027 0 0 0
201 1 6.286900762497024 22.0060301739569 6.287492464774472 0 -1 0
202 1 7.859371834616916 1.5652227602030688 7.859939148309859 0 0 0
203 1 9.43310583013766 22.00737838093056 6.288441751911292 0 -1 0
204 1 11.005243780054677 1.5703324120731652 7.860945649303527 0 0 0
205 1 12.576953110799057 22.00734950573463 6.288498053282187 0 -1 0
206 1 14.150502600537159 1.5659043236556733 7.860082950924297 0 0 0
207 1 15.722723596953275 22.006063558389446 6.287619212240328 0 -1 0
208 1 17.296838650236378 1.5669967196515833 7.859350186136571 0 0 0
209 1 18.86741475327516 22.007347624689782 6.2871555324518775 0 -1 0
210 1 20.439079255638195 1.5689853655117127 7.859619112961009 0 0 0
211 1 0.00015297840964439762 3.13988147114046 6.28605642532842 0 0 0
212 1 1.568922376063933 4.711202368532025 7.858654759546719 0 0 0
213 1 3.1393199421591476 3.137512083292402 6.284875744752952 0 0 0
214 1 4.7058092606989685 4.704772252961228 7.856237817629336 0 0 0
215 1 6.281214623241868 3.130026333076822 6.281407242799989 0 0 0
216 1 7.848878392041527 4.691052363348719 7.850464592505699 0 0 0
217 1 9.433350722080998 3.136122840252988 6.285170702185188 0 0 0
218 1 11.005641695063245 4.7170264058165134 7.861096463943693 0 0 0
219 1 12.576857195977704 3.136801219990382 6.285149119437825 0 0 0
220 1 14.161000384128167 4.693020053543189 7.8506203285230605 0 0 0
221 1 15.728530535594722 3.1304380450661413 6.281565465959325 0 0 0
222 1 17.304326388831488 4.705222029931807 7.8564497058786245 0 0 0
223 1 18.870487359734625 3.137618842996959 6.284968473720835 0 0 0
224 1 20.441391602151928 4.7112186808566925 7.858710741094077 0 0 0
225 1 0.0006797768005586223 6.284345086931453 6.284755068748382 0 0 0
226 1 1.5679647667289558 7.857728034834784 7.858288331389142 0 0 0
227 1 3.132324734474994 6.28024320800261 6.280899439999281 0 0 0
228 1 4.693539151082853 7.850059225994973 7.851279128054799 0 0 0
229 1 6.251362665164488 6.250954015944717 6.25174749411385 0 0 0
230 1 7.770719968548386 7.765739507022995 7.7647701197188495 0 0 0
231 1 9.430402747075547 6.265292687040635 6.268533734387861 0 0 0
232 1 10.999930088204785 7.862078100223895 7.846199594588551 0 0 0
233 1 12.57816866093107 6.268113444253168 6.269387797260895 0 0 0
234 1 14.244338248332104 7.768540138943625 7.75754080099391 0 0 0
235 1 15.759933035051144 6.250422140747618 6.250347122696938 0 0 0
236 1 17.318997528161695 7.849606216382199 7.850027394386985 0 0 0
237 1 18.87870724292512 6.280041634389362 6.280489675586212 0 0 0
238 1 20.44399731711059 7.857465600355276 7.858035383496381 0 0 0
239 1 0.0010192891085741072 9.431626444096299 6.2850969274835 0 0 0
240 1 1.5704751378249202 11.004233036250954 7.858991121721632 0 0 0
241 1 3.136038381782157 9.431806441898864 6.2828874201590486 0 0 0
242 1 4.7087671592858324 11.005753363357222 7.856582693002007 0 0 0
243 1 6.264770723826843 9.432940389897205 6.272116425685176 0 0 0
244 1 7.843743244778042 11.048330767085044 7.827540357455281 0 0 0
245 1 9.372664591793054 9.382665476708208 6.245262395712171 0 0 0
246 1 10.982678711953113 11.008919953575024 7.476761375935905 0 0 0
247 1 12.629277378670166 9.390947007322971 6.255090916383836 0 0 0
248 1 14.175297507101465 11.04290919623102 7.822638639610975 0 0 0
249 1 15.74754057608287 9.432961805302604 6.269126462162191 0 0 0
250 1 17.304950911489733 11.005111120082972 7.855799926385598 0 0 0
251 1 18.875841182780555 9.431617917801471 6.282145091840009 0 0 0
252 1 20.44194499681829 11.004180061838044 7.858781412006952 0 0 0
253 1 0.0008778584426317544 12.577344094279951 6.286417006029878 0 0 0
254 1 1.569187241920472 14.15092342726529 7.859776205499144 0 0 0
255 1 3.136817861977279 12.578376547558326 6.284906698640819 0 0 0
256 1 4.702649895192091 14.15630851638583 7.857306127552146 0 0 0
257 1 6.264091257753463 12.58892853183105 6.27179035301576 0 0 0
258 1 7.82133452495603 14.188079292799655 7.829569459711768 0 0 0
259 1 9.382606097254701 12.631549088517309 6.240738510549245 0 0 0
260 1 11.002449295555946 14.16123648755517 7.816763878796157 0 0 0
261 1 12.620110406021645 12.620498286365965 6.256012093507387 0 0 0
262 1 14.190945044376294 14.182784696776292 7.830902887442524 0 0 0
263 1 15.746822545022559 12.588101560209061 6.270903028302615 0 0 0
264 1 17.309110581839374 14.156128706432462 7.856833782976308 0 0 0
265 1 18.874556350071227 12.578379262407113 6.284488102403541 0 0 0
266 1 20.442280783834978 14.151050650285455 7.859620213056142 0 0 0
267 1 0.00045762318095129317 15.723260887030168 6.28701002152796 0 0 0
268 1 1.5700689666448044 17.29593870268315 7.859894701472562 0 0 0
269 1 3.1377551749260824 15.725555106018014 6.285524735769175 0 0 0
270 1 4.710640710511135 17.299122556319645 7.85920796659802 0 0 0
271 1 6.2722876934916965 15.737669114554837 6.275969093308457 0 0 0
272 1 7.858908585677427 17.299992399515027 7.862728560729073 0 0 0
273 1 9.426150997665522 15.740058209277331 6.27684292330864 0 0 0
274 1 11.005011493445865 17.292740629744223 7.8631371683163165 0 0 0
275 1 12.58371803791503 15.736704578707098 6.278834062753253 0 0 0
276 1 14.15133796046714 17.29856711691229 7.862989641697287 0 0 0
277 1 15.737293980061912 15.736204274521672 6.276781384759825 0 0 0
278 1 17.299376271119428 17.29870221667767 7.859423702059591 0 0 0
279 1 18.872591475680935 15.725502696475372 6.285520551630687 0 0 0
280 1 20.440050197700025 17.29591793072478 7.859963376079961 0 0 0
281 1 8.01532446199541e-05 18.86657441076643 6.287489804225194 0 0 0
282 1 1.5709416854161466 20.437629017569673 7.8600907364067885 0 0 0
283 1 3.1415356098198215 18.867435341127365 6.287234531318067 0 0 0
284 1 4.713930636723404 20.437952924917326 7.8601854086993574 0 0 0
285 1 6.2860726903769 18.869071973967262 6.287816013831475 0 0 0
286 1 7.860466196843815 20.436996300075705 7.861784571471444 0 0 0
287 1 9.43275145677818 18.868954643208603 6.288319744932645 0 0 0
288 1 11.005095422012989 20.436174195001307 7.862310601005809 0 0 0
289 1 12.577402303849496 18.868076028525817 6.2886950773245465 0 0 0
290 1 14.149461772208621 20.43681078660118 7.861883297350992 0 0 0
291 1 15.723638721538718 18.868471382242166 6.288118317074545 0 0 0
292 1 17.29572155441463 20.43785624556779 7.860260885765746 0 0 0
293 1 18.8681338744466 18.867290811119393 6.287351665447828 0 0 0
294 1 20.43868266873598 20.437630650822772 7.860104059609518 0 0 0
295 1 1.161835478313833e-05 22.008543640141376 9.432663144728078 0 -1 0
296 1 1.5707542207901988 1.5699181031394536 11.00537579001034 0 0 0
297 1 3.142097818578973 22.008198688578563 9.432725485724019 0 -1 0
298 1 4.713171542169638 1.5682971984819511 11.005735938155333 0 0 0
299 1 6.286432340525395 22.007399094938854 9.432953975284082 0 -1 0
300 1 7.859350390153628 1.5675090232142952 11.005175360750572 0 0 0
301 1 9.433143194240175 22.00772635736699 9.43351855437336 0 -1 0
302 1 11.00524517536298 1.5712507428047076 11.005167962070757 0 0 0
303 1 12.576985221394455 22.008066717350356 9.433550555048756 0 -1 0
304 1 14.150583072107999 1.568127619917472 11.005164893082098 0 0 0
305 1 15.72330524096337 22.00764422684459 9.432980502464394 0 -1 0
306 1 17.296587111367074 1.5685303105706658 11.00574573218522 0 0 0
307 1 18.867497262951986 22.0082585547172 9.432732313784319 0 -1 0
308 1 20.438989224178844 1.5699358026728563 11.005411555432712 0 0 0
309 1 0.0002193543631201808 3.1406918502837597 9.432431583713914 0 0 0
310 1 1.5697530950983134 4.712451020519556 11.005530052917639 0 0 0
311 1 3.140216823931003 3.138946815099715 9.432383813633749 0 0 0
312 1 4.708515248199761 4.707453895108616 11.006963218181996 0 0 0
313 1 6.282418439479271 3.1345633212487867 9.432130854569914 0 0 0
314 1 7.854252870321109 4.699567810931573 11.006847873231544 0 0 0
315 1 9.432294032402396 3.141337308567409 9.432276847265324 0 0 0
316 1 11.00587135281725 4.718468191637037 11.006244143412815 0 0 0
317 1 12.5781686847525 3.1430609681707318 9.432253270240304 0 0 0
318 1 14.155592107099324 4.7009888900137575 11.006923770496519 0 0 0
319 1 15.727483964401658 3.135463393220624 9.43220811923503 0 0 0
320 1 17.30167388856994 4.707856788920621 11.006975296147761 0 0 0
321 1 18.869751806725567 3.139091619017611 9.432472914657126 0 0 0
322 1 20.440664744298488 4.712455689265222 11.005602504996745 0 0 0
323 1 0.0007079714314898836 6.284948275308597 9.432239206255035 0 0 0
324 1 1.5703624662913354 7.858861522534891 11.00468016168412 0 0 0
325 1 3.1363961523887585 6.281934767862335 9.432023168591652 0 0 0
326 1 4.705432098898122 7.854181231757041 11.006544603190367 0 0 0
327 1 6.2682200834738 6.269648079776538 9.431723403533754 0 0 0
328 1 7.81853991208873 7.800105250715782 11.058891232674553 0 0 0
329 1 9.406149344419317 6.287136585229403 9.414411929983329 0 0 0
330 1 11.002836805353514 7.648309053411011 11.079870944500978 0 0 0
331 1 12.60524382545182 6.295675131561182 9.41372420955904 0 0 0
332 1 14.195030680520073 7.799712974568426 11.067695350817708 0 0 0
333 1 15.74162931458067 6.2714664316916515 9.43183375334492 0 0 0
334 1 17.306772100077797 7.854039036770962 11.007550746140101 0 0 0
335 1 18.874434126610907 6.281997298721123 9.432142407201741 0 0 0
336 1 20.44139314181084 7.85874707501562 11.004879375803721 0 0 0
337 1 0.0015632599785856585 9.431643221261211 9.43195366588992 0 0 0
338 1 1.571718440519648 11.004074752191356 11.004949054073771 0 0 0
339 1 3.1409164906202194 9.431171082456443 9.431194431943066 0 0 0
340 1 4.7140495663495665 11.004700186485044 11.004397023410617 0 0 0
341 1 6.2793668241457485 9.42131829722035 9.424714306974138 0 0 0
342 1 7.860696158089442 11.034164940060647 11.019773486755081 0 0 0
343 1 9.073822555779383 9.230055323358263 9.318035678721321 0 0 0
344 1 10.98455921916658 11.28195550139219 11.529254822263663 0 0 0
345 1 12.94547431533163 9.195519618833178 9.312599758037738 0 0 0
346 1 14.178946138020786 11.033409569228828 11.026566909934882 0 0 0
347 1 15.736801672774655 9.418613124812227 9.423692723049253 0 0 0
348 1 17.304425567072446 11.004316485627175 11.004139492284986 0 0 0
349 1 18.872752231976115 9.430342005211234 9.430637413891098 0 0 0
350 1 20.441335790516806 11.004031714874138 11.005059269607335 0 0 0
351 1 0.001360296797922665 12.577100586699746 9.432535934172213 0 0 0
352 1 1.5687907026747725 14.151193561102236 11.005833998020986 0 0 0
353 1 3.1386181140703364 12.578059502155906 9.432602230023845 0 0 0
354 1 4.700699796115718 14.157660395587792 11.008549984692001 0 0 0
355 1 6.2693923027070975 12.588368396720442 9.433367396251597 0 0 0
356 1 7.8155386327377325 14.192146407951698 11.032985183082314 0 0 0
357 1 9.34958307092939 12.782989775449204 9.430031101050645 0 0 0
358 1 11.004114358506563 14.14442114197422 11.071525945551686 0 0 0
359 1 12.664646591401299 12.80631142928505 9.427179471810804 0 0 0
360 1 14.196304262966738 14.193580364029573 11.038133329188408 0 0 0
361 1 15.744575764935325 12.588245658570766 9.431136216732343 0 0 0
362 1 17.31016538983697 14.157054399015808 11.008668943545723 0 0 0
363 1 18.87434768156197 12.578370122103381 9.431999353801194 0 0 0
364 1 20.442267625229842 14.151116549045387 11.005907002298692 0 0 0
365 1 0.0005506375001898211 15.723726060392066 9.43292383104329 0 0 0
366 1 1.5698697425260677 17.296550276313074 11.00596401393552 0 0 0
367 1 3.1378437636883234 15.726119634442082 9.432801852769192 0 0 0
368 1 4.709751121908934 17.300294714142773 11.00696816313469 0 0 0
369 1 6.275204133599753 15.734601626150383 9.432487158306675 0 0 0
370 1 7.8565591792388885 17.303126702324246 11.006937471630653 0 0 0
371 1 9.435894324919913 15.703807428597402 9.439019283755083 0 0 0
372 1 11.004974736478284 17.291920454492356 11.009328789107753 0 0 0
373 1 12.57491297180834 15.704721011527285 9.439223199353345 0 0 0
374 1 14.1537083757972 17.303351109138433 11.007554208001716 0 0 0
375 1 15.735226197669288 15.733859806119392 9.432958342072133 0 0 0
376 1 17.300408402042454 17.300085019541157 11.007099586914677 0 0 0
377 1 18.872761294358433 15.72598566730019 9.432946085930256 0 0 0
378 1 20.44033690917922 17.296500984192157 11.00602544946867 0 0 0
379 1 0.00017531161467175505 18.86710934928307 9.432869529990404 0 0 0
380 1 1.5708830638393074 20.438375998121952 11.005523562167426 0 0 0
381 1 3.141304237024965 18.867999557803362 9.432920570407635 0 0 0
382 1 4.713610570138623 20.439118854701405 11.00587762972045 0 0 0
383 1 6.284776446288796 18.86991105741918 9.433460267963227 0 0 0
384 1 7.859846093145358 20.43874334147413 11.005758697880527 0 0 0
385 1 9.433283175866402 18.86277648160053 9.435100641557211 0 0 0
386 1 11.005048379348736 20.437115476214107 11.005903133177476 0 0 0
387 1 12.57695674183384 18.862792743991875 9.435187842470851 0 0 0
388 1 14.150109030946673 20.438930905909967 11.005868027713477 0 0 0
389 1 15.725136294799078 18.869626099067307 9.433565660066145 0 0 0
390 1 17.296134482326234 20.43912599190988 11.005910524485985 0 0 0
391 1 18.868587972989985 18.867927935274764 9.433000103037068 0 0 0
392 1 20.438819757092553 20.43837794242864 11.005550920260722 0 0 0
393 1 6.686276569278097e-05 22.00933908964051 12.57796702258878 0 -1 0
394 1 1.5708401111599826 1.5708441436418863 14.150534510437824 0 0 0
395 1 3.1421376592916874 22.009232058134863 12.578245344283284 0 -1 0
396 1 4.713209788152844 1.5693432408620553 14.151654229308408 0 0 0
397 1 6.286614673249492 22.00893524177727 12.578378197512322 0 -1 0
398 1 7.858585246962898 1.568064331317351 14.152562432961448 0 0 0
399 1 9.43283607108757 22.008975705530325 12.578563654016078 0 -1 0
400 1 11.004972176992018 1.5681036140608016 14.153672504180973 0 0 0
401 1 12.577128190475872 22.00906437038116 12.578655841999153 0 -1 0
402 1 14.151292134100842 1.568099426321499 14.152747659403303 0 0 0
403 1 15.72315393585957 22.00909111347933 12.57846057033009 0 -1 0
404 1 17.296644229036232 1.5693035710778174 14.151799520238797 0 0 0
405 1 18.867534455355315 22.009246966535155 12.578281016773785 0 -1 0
406 1 20.4390029008066 1.5708257561684995 14.150568363564288 0 0 0
407 1 0.00026345814667673624 3.1418118971401867 12.578049489506208 0 0 0
408 1 1.5698209218168704 4.71385918560427 14.150957341245515 0 0 0
409 1 3.1407787519472166 3.1403492108693376 12.578760402895226 0 0 0
410 1 4.706917362375208 4.707938016010316 14.156821739986649 0 0 0
411 1 6.283786523839068 3.1360023363590677 12.580367582704424 0 0 0
412 1 7.848998542305825 4.7004245625038426 14.16416666240695 0 0 0
413 1 9.432262181054666 3.1350990814360786 12.581277499736352 0 0 0
414 1 11.004975851295804 4.703257147586636 14.163885088590055 0 0 0
415 1 12.578079771886276 3.135399023181495 12.581569699128194 0 0 0
416 1 14.160902126172457 4.700469682352343 14.164616353733049 0 0 0
417 1 15.726229547021225 3.1361898816341123 12.580503134916576 0 0 0
418 1 17.303742476284178 4.707578523561819 14.157556234225655 0 0 0
419 1 18.86923890246293 3.1403998918207945 12.578829593372076 0 0 0
420 1 20.440638374980665 4.713777998699571 14.151137890134434 0 0 0
421 1 0.0006951347613044178 6.286569020948182 12.57773851784991 0 0 0
422 1 1.5712644367810427 7.859928957202917 14.14977028826788 0 0 0
423 1 3.137884864593866 6.284365230239656 12.57942729112889 0 0 0
424 1 4.712246329841503 7.859884785861304 14.151673177941793 0 0 0
425 1 6.266026726970297 6.266984084800263 12.595872858766016 0 0 0
426 1 7.848951476994938 7.849136602889863 14.16988619609436 0 0 0
427 1 9.407382376377274 6.2510754078236435 12.61895083366754 0 0 0
428 1 11.003402740504626 7.848635954455042 14.178681088843392 0 0 0
429 1 12.601791759078637 6.252427757839154 12.619536716831542 0 0 0
430 1 14.16340151467148 7.846725492544636 14.175202605574503 0 0 0
431 1 15.745720342435982 6.26585337204073 12.597866519467196 0 0 0
432 1 17.29853680800147 7.860089710225032 14.152309101702636 0 0 0
433 1 18.873226994021476 6.284128031257703 12.579920313625724 0 0 0
434 1 20.439703317469593 7.8598625848987345 14.150068604215152 0 0 0
435 1 0.0010480969069974178 9.43195717947744 12.577540045332105 0 0 0
436 1 1.5705347491678245 11.004331651685897 14.150665227425941 0 0 0
437 1 3.1426438367415654 9.432356294743302 12.577571331618687 0 0 0
438 1 4.71002374067446 11.00385084507688 14.153850024075284 0 0 0
439 1 6.287285963449327 9.434662167206236 12.575621164097912 0 0 0
440 1 7.849137518602974 11.002059501077625 14.16689644032327 0 0 0