LAMMPS data file via write_data, version 2 Aug 2023, timestep = 36, units = metal

688 atoms
3 atom types

0 22.009546999999998 xlo xhi
0 22.009546999999998 ylo yhi
0 22.009546999999998 zlo zhi

Masses

1 183.84
2 1.008
3 4.0026

Atoms # atomic

1 1 0.0021998964407416288 0.00227968587462494 5.105645375064537e-05 0 0 0
2 1 1.5743186525773158 1.5739308320943668 1.571950604894059 0 0 0
3 1 3.146188436016762 0.0021890321471702595 0.000371507759477831 0 0 0
4 1 4.718294117488476 1.5737088450171612 1.5719481418465442 0 0 0
5 1 6.290415794732005 0.0020602922993755127 0.000284053166287515 0 0 0
6 1 7.862607829450852 1.5734963573235417 1.57157261551237 0 0 0
7 1 9.434808465625405 0.002003924861569207 22.009472487699238 0 0 -1
8 1 11.007107011097455 1.573393438667808 1.5710992828693422 0 0 0
9 1 12.579219018881256 0.0019766432529456177 22.009078878259622 0 0 -1
10 1 14.151616720670527 1.5734386501106692 1.5708252244595176 0 0 0
11 1 15.72353293628384 0.0020629473102523836 22.008932831092704 0 0 -1
12 1 17.29601773680994 1.5736399212330812 1.5709017206241747 0 0 0
13 1 18.867760670707476 0.002233921438497946 22.00913536651894 0 0 -1
14 1 20.440096957137918 1.5739151329227106 1.5714217239749098 0 0 0
15 1 0.0021084814279790486 3.146255172675503 22.009265741187487 0 0 -1
16 1 1.5742429196782999 4.718114754845364 1.5718200798370758 0 0 0
17 1 3.145943815690106 3.1459899880788798 3.9071344571865506e-05 0 0 0
18 1 4.717958728995215 4.717639717839096 1.5715900849695914 0 0 0
19 1 6.290287620156044 3.145846271150587 22.009299996308364 0 0 -1
20 1 7.862437548725828 4.717329870014465 1.5708871760620204 0 0 0
21 1 9.434766269779283 3.145811085267296 22.00871208067135 0 0 -1
22 1 11.00714604359368 4.717159153443966 1.5701051237618695 0 0 0
23 1 12.579287688335754 3.1458452442415417 22.008217975088346 0 0 -1
24 1 14.151902524029653 4.717236853409233 1.5696738374773138 0 0 0
25 1 15.723658887095148 3.1459733667656495 22.008086397595253 0 0 -1
26 1 17.296454467119233 4.717510263309611 1.5699525747798488 0 0 0
27 1 18.86782814958444 3.1461291403595864 22.008510931196607 0 0 -1
28 1 20.440143697059227 4.718097165344232 1.5711539101180751 0 0 0
29 1 0.0020474638899220642 6.290460924709183 22.00930868495493 0 0 -1
30 1 1.5743205974931953 7.86255220510347 1.5720992929902542 0 0 0
31 1 3.145861233189149 6.290298722227219 0.00028400159158995035 0 0 0
32 1 4.718178607760175 7.862427909943514 1.5722581821920982 0 0 0
33 1 6.289935310893788 6.289900456637664 22.0095338820936 0 0 -1
34 1 7.862279324295332 7.861801812819715 1.5709374132559917 0 0 0
35 1 9.434764330256602 6.289918339350771 22.008472359817496 0 0 -1
36 1 11.007302696307391 7.861592601115747 1.5697019668609502 0 0 0
37 1 12.579348159594442 6.289979003784791 22.007561343245612 0 0 -1
38 1 14.152239685868382 7.861678286333247 1.5689673536898614 0 0 0
39 1 15.723801133903804 6.290162664270482 22.00742874349134 0 0 -1
40 1 17.296294840648173 7.862330085739581 1.5701958408463115 0 0 0
41 1 18.86775793202461 6.290470633236581 22.00838549133404 0 0 -1
42 1 20.440120859479986 7.862537347717303 1.5713151360906084 0 0 0
43 1 0.0020147774606291114 9.434827801238875 4.3676064060895206e-05 0 0 0
44 1 1.5743877537740503 11.006988834881309 1.5725108917311108 0 0 0
45 1 3.145830490847841 9.434772739966895 0.000823009127974979 0 0 0
46 1 4.718372561664899 11.006977261984021 1.5730702819698574 0 0 0
47 1 6.2899651895642 9.434734569420225 0.001009020787559923 0 0 0
48 1 7.862688971056525 11.00691509442902 1.572786808228125 0 0 0
49 1 9.434583087465608 9.434553363288893 22.009523297886833 0 0 -1
50 1 11.007361192490587 11.006784950152676 1.5709485636142244 0 0 0
51 1 12.57943779861007 9.43462113279159 22.008095002288186 0 0 -1
52 1 14.152033997603507 11.00676407600163 1.5705657520773082 0 0 0
53 1 15.723676280776788 9.434808787181629 22.007949534056813 0 0 -1
54 1 17.29619378742026 11.006880472940221 1.5708569299780637 0 0 0
55 1 18.867724507292735 9.434831073975682 22.008695402604477 0 0 -1
56 1 20.440080641605416 11.006941187620118 1.5716753256343792 0 0 0
57 1 0.001981869352038025 12.579205797407568 0.00040643430759033217 0 0 0
58 1 1.5744116384652136 14.151316094846013 1.5728143806681596 0 0 0
59 1 3.1458649443115427 12.579284401019505 0.0012952937399542217 0 0 0
60 1 4.718518641551254 14.151286857488063 1.5735434041970784 0 0 0
61 1 6.290010021202786 12.579348366142273 0.0019106430713132332 0 0 0
62 1 7.86283927178244 14.151224950179435 1.5737663699683282 0 0 0
63 1 9.434652633800576 12.579419376345218 0.0015019737070120413 0 0 0
64 1 11.007292107875347 14.15109112197694 1.5729200425534906 0 0 0
65 1 12.579434472567572 12.579397104115472 4.791177342866604e-06 0 0 0
66 1 14.151938578066622 14.151415466330258 1.571462153183101 0 0 0
67 1 15.723692069077224 12.57917585563135 22.008880921734054 0 0 -1
68 1 17.296083619543012 14.151232200672235 1.571510054928987 0 0 0
69 1 18.867701911031478 12.579173983863628 22.009189047813216 0 0 -1
70 1 20.440036232604406 14.151285516150844 1.5720217926571118 0 0 0
71 1 0.002078169647179367 15.723569562135044 0.0006012409312714683 0 0 0
72 1 1.5744342810803948 17.29553769429805 1.5727834177391802 0 0 0
73 1 3.1459465943570133 15.723688611684215 0.0014259109141015157 0 0 0
74 1 4.71856855631674 17.295444218731923 1.5733992523551676 0 0 0
75 1 6.290171546038012 15.723822773908855 0.0021195166636460657 0 0 0
76 1 7.86290733134675 17.295281557681776 1.5733169132270752 0 0 0
77 1 9.434827931752238 15.723663139547858 0.0015517811376605788 0 0 0
78 1 11.007153858372005 17.295293999689722 1.5727589937433226 0 0 0
79 1 12.57921163062439 15.723642621663636 0.0006253815790699841 0 0 0
80 1 14.151474565771036 17.295432368833573 1.5720559488276906 0 0 0
81 1 15.723768614629087 15.72372875321371 22.009535724848885 0 0 -1
82 1 17.29610423213167 17.29569320488294 1.5716456314929306 0 0 0
83 1 18.867768996328223 15.723533719073027 2.346478095915927e-05 0 0 0
84 1 20.440059260559163 17.295573191833512 1.572124254027716 0 0 0
85 1 0.002182227997589643 18.86784764792255 0.0004871776284947498 0 0 0
86 1 1.5744086399797779 20.43962128817227 1.5724344726952535 0 0 0
87 1 3.1460886484360384 18.867894310258407 0.001083225069785017 0 0 0
88 1 4.7184922890348515 20.439433088891786 1.572626086443854 0 0 0
89 1 6.290430795936562 18.867800746958782 0.0011499177815458628 0 0 0
90 1 7.862757782409525 20.439258829485194 1.572438189587201 0 0 0
91 1 9.43482817973658 18.867691900942347 0.0008076494983674467 0 0 0
92 1 11.007109959568677 20.439209388889648 1.5720262268882843 0 0 0
93 1 12.579207589638077 18.867663422460147 0.0002994774653259738 0 0 0
94 1 14.151499427408211 20.439274989656322 1.5716651544677174 0 0 0
95 1 15.723566187688721 18.86773243290621 22.00949352509166 0 0 -1
96 1 17.29589251728309 20.439505016073642 1.571570261669125 0 0 0
97 1 18.867843464543284 18.867875479101997 1.6272245754186145e-05 0 0 0
98 1 20.440072709020058 20.439650673622143 1.5719105818001304 0 0 0
99 1 0.0026464690885675806 0.001933538479780229 3.1440022796188423 0 0 0
100 1 1.5746430184176032 1.573786449668087 4.716100264471054 0 0 0
101 1 3.146447903367265 0.0017171168367306467 3.144212245845602 0 0 0
102 1 4.718235976893633 1.5732315547205629 4.715809199456721 0 0 0
103 1 6.290562871397853 0.001400607797207361 3.1440585042969054 0 0 0
104 1 7.862508356509471 1.572694712519528 4.715300947360025 0 0 0
105 1 9.434884498397428 0.0011661862503389024 3.1436743816037214 0 0 0
106 1 11.007164019549029 1.5723422825843787 4.714801528796231 0 0 0
107 1 12.57942135277671 0.00115585546220548 3.1433037691127503 0 0 0
108 1 14.152101671139437 1.5723819345147143 4.714539154955546 0 0 0
109 1 15.724003943171935 0.0013560847990497114 3.1431403031781486 0 0 0
110 1 17.29694788575512 1.5727859985049075 4.714694838042865 0 0 0
111 1 18.868398554001512 0.001710622290262973 3.1433564852020455 0 0 0
112 1 20.440560085354527 1.5736394831223344 4.715663646615067 0 0 0
113 1 0.002698549034412521 3.145737570074048 3.1435145584628814 0 0 0
114 1 1.5745323576041486 4.717644215520811 4.715601663299117 0 0 0
115 1 3.14617294652411 3.1455450184611493 3.1436784377048235 0 0 0
116 1 4.717486444049335 4.716734167803597 4.714842193800819 0 0 0
117 1 6.290218108089256 3.145071792361057 3.1432169577199076 0 0 0
118 1 7.861986540574345 4.715922992192877 4.713861871028904 0 0 0
119 1 9.434779790911465 3.14470737683724 3.1425798286698945 0 0 0
120 1 11.007283649540879 4.715211623510692 4.712983037488419 0 0 0
121 1 12.57961369902462 3.144534264527464 3.14207475436997 0 0 0
122 1 14.15310088509825 4.714999021607285 4.712354309373727 0 0 0
123 1 15.724505964336752 3.1446993794186806 3.141963344383235 0 0 0
124 1 17.298465044377057 4.715582600999325 4.712900954649309 0 0 0
125 1 18.868804321691293 3.1452399390351085 3.14258298655174 0 0 0
126 1 20.441117208329153 4.7173345636710735 4.714953337469075 0 0 0
127 1 0.002780004064532149 6.290195710058372 3.1435326151331164 0 0 0
128 1 1.5748711829071627 7.862430040890377 4.715864884071865 0 0 0
129 1 3.1462928877723235 6.290119768994432 3.1438054068479784 0 0 0
130 1 4.718413893753953 7.862313804694918 4.715714438477258 0 0 0
131 1 6.28971974211849 6.289055904790342 3.1424111796113836 0 0 0
132 1 7.8612968046315475 7.859901227848057 4.711772227529882 0 0 0
133 1 9.434760661301663 6.288495985457977 3.141318568936535 0 0 0
134 1 11.007735205702621 7.859179188728109 4.71064775178902 0 0 0
135 1 12.580011742674966 6.288165235639623 3.140377517408198 0 0 0
136 1 14.15495848737719 7.858433868815258 4.708748284753783 0 0 0
137 1 15.725543906289209 6.288363601650547 3.1401408951948913 0 0 0
138 1 17.29784999467986 7.861468202201701 4.713337753774467 0 0 0
139 1 18.868895611523605 6.28979009597181 3.142409599085424 0 0 0
140 1 20.44102251228495 7.862199439805619 4.715101518369649 0 0 0
141 1 0.002851327619131808 9.434708144008463 3.1437981969472806 0 0 0
142 1 1.5750779706309683 11.006907255797406 4.716304161900905 0 0 0
143 1 3.1466687236736366 9.434764765416624 3.144403082401895 0 0 0
144 1 4.719153771637171 11.006958782316254 4.716898478293374 0 0 0
145 1 6.2906977610413914 9.43472458791133 3.144137102478055 0 0 0
146 1 7.863798254850975 11.006831270513786 4.716717254379232 0 0 0
147 1 9.434902582246512 9.433601882551871 3.1414288263842716 0 0 0
148 1 11.008382496809388 11.005967142376536 4.710988409937066 0 0 0
149 1 12.580485681243724 9.433358725519165 3.1400607458604104 0 0 0
150 1 14.15297715613623 11.006118922474075 4.713929863404524 0 0 0
151 1 15.724849900444372 9.43426661388011 3.1416141037084406 0 0 0
152 1 17.297280479849313 11.006554466012997 4.714406344850519 0 0 0
153 1 18.868709045671952 9.434568324546769 3.1428092523537225 0 0 0
154 1 20.44093559140394 11.006835828379957 4.715436167436056 0 0 0
155 1 0.002847632353379746 12.579102148219079 3.1441636173823366 0 0 0
156 1 1.5751286961619364 14.151185989504578 4.716597526574137 0 0 0
157 1 3.1468372017295256 12.579052096016811 3.144932500851602 0 0 0
158 1 4.719355599627072 14.150938761819656 4.717328270054616 0 0 0
159 1 6.2910614715997255 12.57893073721246 3.1454009149873583 0 0 0
160 1 7.863804352252026 14.150439700825297 4.717960751893915 0 0 0
161 1 9.435229686858785 12.578878765634196 3.14485178812129 0 0 0
162 1 11.007725888035319 14.149942274883292 4.717604267308716 0 0 0
163 1 12.580415453676773 12.57898225109054 3.1428369623652475 0 0 0
164 1 14.153346356237998 14.151999759385266 4.713607552973863 0 0 0
165 1 15.724556487768862 12.57878660641311 3.1428375502622345 0 0 0
166 1 17.296971502034502 14.151203834019297 4.715018670814018 0 0 0
167 1 18.868537936199054 12.579039844619986 3.1433555948461707 0 0 0
168 1 20.44076935767123 14.151256682016701 4.715777083159028 0 0 0
169 1 0.0027891538084739483 15.72337978717213 3.144335752126727 0 0 0
170 1 1.575008160712479 17.295471442771433 4.716535649759677 0 0 0
171 1 3.146858062724517 15.723246517033916 3.145063187568718 0 0 0
172 1 4.7191861911843676 17.29497413219179 4.717227333226142 0 0 0
173 1 6.291183441096019 15.722934656478026 3.145679636271827 0 0 0
174 1 7.863271704790375 17.294722565845877 4.717209244407287 0 0 0
175 1 9.43541628613823 15.722767111972102 3.145440092271488 0 0 0
176 1 11.007311854485822 17.29480860151693 4.716781765445317 0 0 0
177 1 12.579372139197332 15.723023579221554 3.1443740798880087 0 0 0
178 1 14.151879951217328 17.29547940675485 4.715657102428565 0 0 0
179 1 15.724547994554696 15.723779888926204 3.1429410876435706 0 0 0
180 1 17.297170038433283 17.296256149095694 4.714917562635378 0 0 0
181 1 18.868452103004625 15.723425607586034 3.143640231442212 0 0 0
182 1 20.440797706935026 17.29577910636454 4.715809069197824 0 0 0
183 1 0.0027673632656676633 18.86760198074082 3.144241827094364 0 0 0
184 1 1.5747360330735602 20.439485423624514 4.716420709749313 0 0 0
185 1 3.1467242980357124 18.86733711211492 3.144794836055369 0 0 0
186 1 4.718650521115283 20.439102523455016 4.716499136003245 0 0 0
187 1 6.290856283698224 18.867067498705314 3.14489416330268 0 0 0
188 1 7.862852247428028 20.43874838973186 4.716321723943951 0 0 0
189 1 9.435107690393638 18.866935695541272 3.144626003029159 0 0 0
190 1 11.007207479850901 20.438702010124675 4.715925929023465 0 0 0
191 1 12.579361514065829 18.86706734720594 3.1440926675200522 0 0 0
192 1 14.151771939058197 20.438955352210336 4.7155024049430665 0 0 0
193 1 15.7239192957259 18.867434343616186 3.143572429604684 0 0 0
194 1 17.296604782631693 20.43947577433479 4.715331427912581 0 0 0
195 1 18.86843530115649 18.867687674814647 3.1436140386173537 0 0 0
196 1 20.440452845193974 20.43954837978028 4.7159650727484825 0 0 0
197 1 0.002842787099554823 0.0019596042578213305 6.288226427700684 0 0 0
198 1 1.5747225101563493 1.5740305913078976 7.860439774143384 0 0 0
199 1 3.146627540618144 0.0018352414297627313 6.288465754713249 0 0 0
200 1 4.7184874261019845 1.573815329644024 7.860505946428523 0 0 0
201 1 6.290413276335154 0.0012341552388486648 6.288095944020624 0 0 0
202 1 7.862221281262019 1.5725612731129943 7.859676855357539 0 0 0
203 1 9.434837297455191 0.0007980576137235406 6.287704630346607 0 0 0
204 1 11.007130394809261 1.571847140637044 7.859202985971375 0 0 0
205 1 12.579595762134355 0.0007354093027559053 6.287322010351833 0 0 0
206 1 14.152736407345948 1.5716569417723198 7.858861441796421 0 0 0
207 1 15.724681927822582 0.0011505051225210723 6.2871334994448365 0 0 0
208 1 17.296775405585425 1.5732443790695738 7.859789154353669 0 0 0
209 1 18.86861210398886 0.0017263963672551176 6.287842833904139 0 0 0
210 1 20.440544768805957 1.5738631220136718 7.860202594536092 0 0 0
211 1 0.0029821800559953846 3.1457778885139676 6.288002571501173 0 0 0
212 1 1.5748484806317045 4.717937069811988 7.860345367516425 0 0 0
213 1 3.1465053669813736 3.145695820589819 6.28819071451677 0 0 0
214 1 4.7184863419284335 4.717755236062233 7.860443141183512 0 0 0
215 1 6.289738096188529 3.1441795171483067 6.2870575826735 0 0 0
216 1 7.860961290520268 4.713952379938301 7.857616941186837 0 0 0
217 1 9.43457633287111 3.143358488030599 6.28621473370408 0 0 0
218 1 11.007059270516606 4.712465787332302 7.8569918097139295 0 0 0
219 1 12.579961414662254 3.142758755663641 6.285664729634956 0 0 0
220 1 14.155612244110271 4.710458014469552 7.855266193927404 0 0 0
221 1 15.72595633760739 3.1427284760646637 6.285487637818042 0 0 0
222 1 17.297769341886436 4.716241257388659 7.859023047283626 0 0 0
223 1 18.869124327745585 3.1450962333239705 6.287301159491259 0 0 0
224 1 20.440919409855397 4.717619324167749 7.859916617391892 0 0 0
225 1 0.003301021238316944 6.289671784111164 6.287452073546059 0 0 0
226 1 1.5745305406394408 7.861935000209427 7.859841954815673 0 0 0
227 1 3.145823322313304 6.289427572183972 6.2874426354557995 0 0 0
228 1 4.716395334931507 7.86090578106389 7.85888290003433 0 0 0
229 1 6.287356780375216 6.286410830736788 6.2844028227775 0 0 0
230 1 7.853536245008559 7.851292565317469 7.848244775948286 0 0 0
231 1 9.433847128551252 6.2855121812936945 6.2830359171320636 0 0 0
232 1 11.006752641997128 7.850510956257046 7.849402610147865 0 0 0
233 1 12.581222081260306 6.2840678335640066 6.281802451604763 0 0 0
234 1 14.168869288529015 7.84278344605716 7.840653303104789 0 0 0
235 1 15.730484919028939 6.2832143398685885 6.280629241827423 0 0 0
236 1 17.301827766489527 7.858705812484124 7.856017272959863 0 0 0
237 1 18.870822939086388 6.288430540330695 6.285886975859405 0 0 0
238 1 20.44194074225263 7.861538829495103 7.859095179865156 0 0 0
239 1 0.003388763515604385 9.434571398691174 6.287722253404098 0 0 0
240 1 1.5750935632966019 11.006914267670616 7.860376395196015 0 0 0
241 1 3.1469981991049054 9.434822415058587 6.288285588036257 0 0 0
242 1 4.719470502335464 11.007071778906589 7.861699882580385 0 0 0
243 1 6.291226217635472 9.43499268900754 6.287870343343335 0 0 0
244 1 7.865718528651516 11.007984817572945 7.863598802521132 0 0 0
245 1 9.433689201990724 9.429871785080541 6.279562283904349 0 0 0
246 1 11.011463596932504 11.00070823202973 7.829215491267553 0 0 0
247 1 12.584115770398146 9.427722149876434 6.277026975610272 0 0 0
248 1 14.152856830469338 11.004748584554545 7.8600984088471515 0 0 0
249 1 15.726428490410937 9.433491152765823 6.2844044501709515 0 0 0
250 1 17.298383288960142 11.006387123505908 7.858601649491111 0 0 0
251 1 18.86976211432056 9.434265526254556 6.286493408195575 0 0 0
252 1 20.44144377002618 11.006785966868765 7.859485310013966 0 0 0
253 1 0.0033898439266298987 12.579096472003553 6.2880245065546125 0 0 0
254 1 1.5750045933894847 14.151643285752641 7.860383488567986 0 0 0
255 1 3.1473772118140926 12.578981263331908 6.2888860729501825 0 0 0
256 1 4.718833553614207 14.15170596731784 7.86089522532291 0 0 0
257 1 6.292151000239849 12.578640905087475 6.289913206712499 0 0 0
258 1 7.864862761971237 14.14981673144586 7.863054117969155 0 0 0
259 1 9.436127517812668 12.5781498854528 6.29179756332284 0 0 0
260 1 11.007230747412954 14.149339146775798 7.864544959789516 0 0 0
261 1 12.58321861770722 12.580130433415329 6.2854794580735485 0 0 0
262 1 14.161418015506614 14.160196146569083 7.85130221982567 0 0 0
263 1 15.725456632326049 12.57840719737352 6.286469315054499 0 0 0
264 1 17.30017004681647 14.153518256677662 7.857624034436691 0 0 0
265 1 18.86940769205835 12.578965371083495 6.287105939443685 0 0 0
266 1 20.441638402830822 14.151918407617528 7.859590615516864 0 0 0
267 1 0.003362321257215964 15.723697987959225 6.288092078790401 0 0 0
268 1 1.5748457824145932 17.29574289524062 7.860628041936646 0 0 0
269 1 3.147147240242084 15.72338922572424 6.288802801839481 0 0 0
270 1 4.718820763187486 17.295474868695596 7.861083190086351 0 0 0
271 1 6.291787665106899 15.722512943204885 6.289860312738206 0 0 0
272 1 7.86250041781765 17.295687573743493 7.860807405213055 0 0 0
273 1 9.435838559830183 15.722108791865066 6.289919273088401 0 0 0
274 1 11.007195942953127 17.295768940621706 7.861408260425764 0 0 0
275 1 12.579416733563148 15.723240148550278 6.2883698198309865 0 0 0
276 1 14.15413152109203 17.298958676692727 7.858384069374113 0 0 0
277 1 15.727179715291049 15.726119024352112 6.285079428992521 0 0 0
278 1 17.297254232196273 17.296501038117096 7.859843458875046 0 0 0
279 1 18.869850529708245 15.724324575420013 6.287044539919063 0 0 0
280 1 20.440741318243106 17.29596933338323 7.860223464920715 0 0 0
281 1 0.002934653795437081 18.867670624195682 6.2883269458068165 0 0 0
282 1 1.574701067671284 20.43971175648114 7.8605842183837975 0 0 0
283 1 3.1468206398072893 18.867442251421163 6.288714649896942 0 0 0
284 1 4.718590747054121 20.43948794113784 7.860740171929445 0 0 0
285 1 6.290788234627497 18.86710196277841 6.288765992468587 0 0 0
286 1 7.862455353946148 20.439298352096724 7.860379840640924 0 0 0
287 1 9.435105375493844 18.866858960428903 6.288636038710856 0 0 0
288 1 11.007164171891015 20.439261808950903 7.860212087142638 0 0 0
289 1 12.579473024792277 18.867307132317627 6.288067108182421 0 0 0
290 1 14.152488172333042 20.439964137067648 7.859592839065812 0 0 0
291 1 15.725038957734663 18.868491437140936 6.287076114141211 0 0 0
292 1 17.296637236962088 20.43969076409468 7.860066851001426 0 0 0
293 1 18.86875912920007 18.86785379062209 6.287864843126179 0 0 0
294 1 20.440483929901553 20.43973837410758 7.860309319658953 0 0 0
295 1 0.002684503398784372 0.002292724072243634 9.432584549863721 0 0 0
296 1 1.5744592864387577 1.5744306781068906 11.004807935986786 0 0 0
297 1 3.146464808608927 0.0022839868341394368 9.432745429465681 0 0 0
298 1 4.718330028730378 1.5744558849074677 11.004866188124328 0 0 0
299 1 6.2903830508960255 0.00208255788696241 9.432752269268702 0 0 0
300 1 7.862332664407241 1.5742069386518296 11.004795546178947 0 0 0
301 1 9.434513557639093 0.0016578760401325273 9.432323753455012 0 0 0
302 1 11.007053421102418 1.5726464092951329 11.004599289500687 0 0 0
303 1 12.579843466975735 0.0015510593304085963 9.432066879591707 0 0 0
304 1 14.152127165059717 1.5736454970845655 11.004496107790086 0 0 0
305 1 15.724436620242875 0.0018827782574727433 9.432263295752241 0 0 0
306 1 17.296299524395067 1.5740887868593105 11.00454481549129 0 0 0
307 1 18.86844288185973 0.0021451111456370535 9.432420089248122 0 0 0
308 1 20.440192204607595 1.5743307010705672 11.004647272974365 0 0 0
309 1 0.0028007248494171235 3.1460903351703497 9.43248299222991 0 0 0
310 1 1.5745108096637859 4.718297472419397 11.004720544736987 0 0 0
311 1 3.146596984591869 3.1461702008194257 9.432665459751455 0 0 0
312 1 4.718523879231633 4.718483774796658 11.004825488751361 0 0 0
313 1 6.290503863034648 3.1459436699789167 9.432661318753514 0 0 0
314 1 7.863108924798181 4.718855191101634 11.004523413467638 0 0 0
315 1 9.434153451049209 3.143260097578378 9.43123697633846 0 0 0
316 1 11.007150762942343 4.70937813688178 11.003838277712935 0 0 0
317 1 12.580635990249508 3.141418167391205 9.430658306979215 0 0 0
318 1 14.152227211983595 4.716919151986919 11.004159789656695 0 0 0
319 1 15.724797024900212 3.1446643600997493 9.431921971747032 0 0 0
320 1 17.296510171558612 4.717710882558251 11.004234455278429 0 0 0
321 1 18.868627775208612 3.1457029439757584 9.432224343369697 0 0 0
322 1 20.440273772435166 4.718145433616396 11.004509662505003 0 0 0
323 1 0.002986623024057763 6.290013683203274 9.432335143948297 0 0 0
324 1 1.574272779450062 7.862286632359189 11.004771972740349 0 0 0
325 1 3.1467435041689247 6.29020191704229 9.432773120505056 0 0 0
326 1 4.718965703335443 7.863151857519464 11.005052370123446 0 0 0
327 1 6.291418891999509 6.290645568752409 9.433363223455109 0 0 0
328 1 7.869863448995494 7.869693984043805 11.004627433468773 0 0 0
329 1 9.431862566781344 6.283662821910654 9.426115244022466 0 0 0
330 1 11.012036512937103 7.810452387308145 10.999193391242702 0 0 0
331 1 12.585743684029545 6.275128039243412 9.423773509899487 0 0 0
332 1 14.15001853888675 7.864843641443018 11.004183441263217 0 0 0
333 1 15.725786565017591 6.287638653744918 9.431536444237656 0 0 0
334 1 17.29672029067517 7.862332463699983 11.003744019378136 0 0 0
335 1 18.869174864215037 6.289441561199584 9.431915923543496 0 0 0
336 1 20.44046062597722 7.862179973521193 11.004317336609692 0 0 0
337 1 0.0031296960618411264 9.434279445168862 9.432001063131974 0 0 0
338 1 1.572738900859301 11.007007036733777 11.004921783855899 0 0 0
339 1 3.145308272902176 9.433899769550989 9.432146606696909 0 0 0
340 1 4.709636672273948 11.00713039947156 11.005621549257091 0 0 0
341 1 6.288308502841045 9.431208093023423 9.42925698644506 0 0 0
342 1 7.811210577523658 11.011797339262818 11.01008446827837 0 0 0
343 1 9.406194607144085 9.397989961319865 9.375578163980805 0 0 0
344 1 20.439609399612813 20.440153097560234 20.437709045796833 0 0 0
345 1 12.622976867006239 9.364325838911814 9.36937012932614 0 0 0
346 1 14.21180150560284 11.008970166708785 11.000687508690747 0 0 0
347 1 15.732314489381737 9.4276356678408 9.424397722267486 0 0 0
348 1 17.306394931005638 11.006891792636315 11.003203642843832 0 0 0
349 1 18.871406366906708 9.433338128665305 9.430525323297543 0 0 0
350 1 20.441902039048568 11.006928359222877 11.004349692997698 0 0 0
351 1 0.0031562883398577237 12.579533677308014 9.432190050674386 0 0 0
352 1 1.573695518019649 14.152078117266969 11.004989590736074 0 0 0
353 1 3.145717496582686 12.579961424844083 9.432600890791052 0 0 0
354 1 4.716965897490873 14.152229241754071 11.005377833139285 0 0 0
355 1 6.291189489260868 12.582315379838247 9.43197749757772 0 0 0
356 1 7.864811766747726 14.150077530276283 11.0053602950961 0 0 0
357 1 9.4324046847943 12.584642011215513 9.422823541345407 0 0 0
358 1 11.009042218168194 14.212055058034748 11.009043977510059 0 0 0
359 1 12.612359784163367 12.619441219978057 9.395853276546154 0 0 0
360 1 14.152509647973561 14.152530780420934 11.004686300323074 0 0 0
361 1 15.73115858495224 12.5846827979066 9.426298534702884 0 0 0
362 1 17.297992612316374 14.15243519921621 11.004168848545621 0 0 0
363 1 18.871191845323338 12.580127171607304 9.430938514628123 0 0 0
364 1 20.440708805138524 14.152064538873754 11.004567801019002 0 0 0
365 1 0.0028643058724608203 15.723988908037779 9.432514300484033 0 0 0
366 1 1.574117120524877 17.296265974599375 11.004981460017806 0 0 0
367 1 3.146436022562432 15.723959901055068 9.432986118408191 0 0 0
368 1 4.7176995401112976 17.296559097882366 11.005264978394052 0 0 0
369 1 6.290891708756119 15.723565059307251 9.433942076602769 0 0 0
370 1 7.8623327874718125 17.296753178070258 11.005792557427686 0 0 0
371 1 9.432441861541887 15.724445220704908 9.431354075652898 0 0 0
372 1 11.006915063271242 17.306444160984995 11.00628823930609 0 0 0
373 1 12.585057449002363 15.731211242499194 9.42880413570604 0 0 0
374 1 14.152434789367202 17.297969610722536 11.005321115864517 0 0 0
375 1 15.725760348386196 15.725372348374949 9.432348585713415 0 0 0
376 1 17.296863002477018 17.296807141355462 11.004754959403229 0 0 0
377 1 18.869229806370043 15.724356867854961 9.432255949572514 0 0 0
378 1 20.44033893850232 17.296315469463718 11.004751549055168 0 0 0
379 1 0.0027061854552985257 18.868010230941483 9.432629779564921 0 0 0
380 1 1.5743399707550763 20.440176554106998 11.004898787098849 0 0 0
381 1 3.146436583618597 18.867971460388937 9.432892139017891 0 0 0
382 1 4.718140034601276 20.440269604439916 11.005072121531931 0 0 0
383 1 6.290406865128514 18.867836812043258 9.433166830593002 0 0 0
384 1 7.862197222478778 20.44046560815308 11.00523862721236 0 0 0
385 1 9.434111525422415 18.868994314025244 9.432572748336787 0 0 0
386 1 11.006988000058529 20.441873183203707 11.00517259620103 0 0 0
387 1 12.580529016557602 18.87031714227716 9.432081571058506 0 0 0
388 1 14.152159030217083 20.44068883422986 11.004948926623138 0 0 0
389 1 15.724713656486134 18.868593901427605 9.432535614057494 0 0 0
390 1 17.29640191092691 20.440289684569724 11.004720412614931 0 0 0
391 1 18.86859410340246 18.868146805121356 9.432450911158622 0 0 0
392 1 20.440172859495394 20.440106187476882 11.004744102796657 0 0 0
393 1 0.0022845050239136302 0.0026803082448717723 12.576970589672129 0 0 0
394 1 1.5740381629027114 1.5747113908020611 14.149145264396937 0 0 0
395 1 3.1460970734083906 0.002777479017283859 12.577109917056466 0 0 0
396 1 4.717981108435194 1.5748213711190677 14.149277081607728 0 0 0
397 1 6.290023681406205 0.0029614002439962844 12.57725777979645 0 0 0
398 1 7.8619474061676415 1.5745734038408852 14.149706718067064 0 0 0
399 1 9.434317362595745 0.003115899699199495 12.577535131693908 0 0 0
400 1 11.0069243877621 1.575084293755905 14.149095080636782 0 0 0
401 1 12.57958258345391 0.0030834080718899265 12.577307479812758 0 0 0
402 1 14.151694649960088 1.5749523808425046 14.149098301407475 0 0 0
403 1 15.724065145085548 0.0028318894508898456 12.576969359619998 0 0 0
404 1 17.2957726649659 1.574849521719016 14.148868604976938 0 0 0
405 1 18.868036336599015 0.0026677869204465143 12.576869050641465 0 0 0
406 1 20.439707855023794 1.5746940834008634 14.148947495801252 0 0 0
407 1 0.0023084754223683143 3.146477635593554 12.57685308079413 0 0 0
408 1 1.573843556486882 4.718472631403178 14.149093794970103 0 0 0
409 1 3.146226658001897 3.1465502259718097 12.576937648308109 0 0 0
410 1 4.717806313518726 4.7184887448526025 14.149154871852081 0 0 0
411 1 6.290230297291818 3.146710949930473 12.576833059106226 0 0 0
412 1 7.860969890503529 4.716490379876207 14.15058454968237 0 0 0
413 1 9.433898785076728 3.1452692214839324 12.577388974954777 0 0 0
414 1 11.007034896804296 4.719441744609894 14.14782946632255 0 0 0
415 1 12.580005470333393 3.1456512517817297 12.576899598293561 0 0 0
416 1 14.151691384605252 4.718797952758031 14.148594830483086 0 0 0
417 1 15.723976694120957 3.1464051256892636 12.57647758761251 0 0 0
418 1 17.295444419386552 4.718830558872509 14.148387411670306 0 0 0
419 1 18.867957441056802 3.146431941717246 12.576654622356155 0 0 0
420 1 20.439470004317158 4.718562518020916 14.148795124259 0 0 0
421 1 0.0021244224121827683 6.290349734530448 12.576805115433427 0 0 0
422 1 1.572709100476351 7.862169758433474 14.149838377204135 0 0 0
423 1 3.1460403528459353 6.290467923827632 12.576944460100233 0 0 0
424 1 4.714191765030419 7.861087344516953 14.151780255020423 0 0 0
425 1 6.290751403948776 6.291499214950923 12.576157826788661 0 0 0
426 1 7.851703736653635 7.8538133989054515 14.160853068875506 0 0 0
427 1 9.431366692107941 6.288279395509097 12.580014151493492 0 0 0
428 1 11.008257669767366 7.8656346312210825 14.145969910600211 0 0 0
429 1 12.582340460475217 6.291064642053147 12.577590882844456 0 0 0
430 1 14.149902326626643 7.864761454933166 14.146660646404301 0 0 0
431 1 15.723520490645 6.290911747608936 12.57558378475475 0 0 0
432 1 17.295673760874823 7.862502793761804 14.14870587774019 0 0 0
433 1 18.86781377680484 6.290398693748145 12.576352427018222 0 0 0
434 1 20.43935879538247 7.8623925577863565 14.149139608869989 0 0 0
435 1 0.0017619560328021313 9.434464975637235 12.57718786499413 0 0 0
436 1 1.5719790223106729 11.007078229592299 14.150270594541068 0 0 0
437 1 3.143450402325364 9.434125938183335 12.578292123395023 0 0 0
438 1 4.712696562713594 11.007029969863348 14.152401859503682 0 0 0