LAMMPS data file via write_data, version 2 Aug 2023, timestep = 26, units = metal

686 atoms
3 atom types

0 22.009546999999998 xlo xhi
0 22.009546999999998 ylo yhi
0 22.009546999999998 zlo zhi

Masses

1 183.84
2 1.008
3 4.0026

Atoms # atomic

394 1 4.7214683231687955 11.00477035979733 4.7214675825696055 0 0 0
2 1 1.5729379441384113 1.5729379441384108 1.5729373736029146 0 0 0
398 1 17.28806782849366 11.004770964745978 4.721472432047514 0 0 0
4 1 4.717568488375148 1.5729058856103275 1.5729052449156686 0 0 0
126 1 18.859674595044297 9.434246695512519 6.291815208164273 0 0 0
6 1 7.86139065667303 1.5729904199584324 1.5729897355605862 0 0 0
125 1 15.702871520174797 9.444661547342527 6.306663492653483 0 0 0
8 1 11.004775283487607 1.5729908845356673 1.5729902108173575 0 0 0
124 1 12.59202874133279 9.417501293516112 6.282030391668977 0 0 0
10 1 14.148158648492318 1.572991609460504 1.5729910432166807 0 0 0
123 1 9.417499718381364 9.417499718381364 6.282027744533325 0 0 0
12 1 17.291977811096082 1.5729072205956915 1.5729066767468776 0 0 0
348 1 14.148356087321575 11.004772866183583 1.5741389904086587 0 0 0
14 1 20.43660612793331 1.5729383936197427 1.57293787730076 0 0 0
347 1 11.004771842904104 11.004771842904102 1.5725261987392822 0 0 0
16 1 1.5729058856103275 4.717568488375147 1.5729052449156695 0 0 0
114 1 3.147638412339303 6.289813957170398 6.289813669690659 0 0 0
18 1 4.717723317823334 4.717723317823335 1.5735762041589771 0 0 0
396 1 11.004766528499266 11.004766528499266 4.71718233621558 0 0 0
20 1 7.861962581298582 4.718399424894511 1.5740878835123664 0 0 0
397 1 14.14457990751676 11.004767654307027 4.727356830235668 0 0 0
22 1 11.004774155073388 4.718408348290434 1.5739478477069662 0 0 0
113 1 22.00954249342964 6.289217508777444 6.289217786418761 -1 0 0
24 1 14.147584706327397 4.718401645114591 1.5740895225913827 0 0 0
346 1 7.861187026392707 11.004772553980532 1.5741362630130706 0 0 0
26 1 17.291821758466465 4.717725823322177 1.5735779893187654 0 0 0
98 1 18.863047029914924 9.433428657260608 3.1464954812826775 0 0 0
28 1 20.436637323884163 4.717569534277149 1.572905978481389 0 0 0
112 1 18.863015857503463 3.146528186672733 6.290439765906893 0 0 0
30 1 1.5729904199584326 7.86139065667303 1.5729897355605853 0 0 0
395 1 7.864953865438677 11.004767317253723 4.727351978311417 0 0 0
32 1 4.718399424894512 7.861962581298582 1.5740878835123653 0 0 0
111 1 15.719728004366939 3.1476417673170274 6.289816586087575 0 0 0
34 1 7.860869293099541 7.86086929309954 1.5735140987848917 0 0 0
97 1 15.717726713035189 9.434246691283162 3.149864844435672 0 0 0
36 1 11.004772553980532 7.861187026392706 1.5741362630130704 0 0 0
96 1 12.577045803872682 9.43249374048003 3.1453403683698276 0 0 0
38 1 14.148675159168517 7.8608712624783506 1.5735165251390621 0 0 0
95 1 9.432493053001679 9.432493053001679 3.1453379896534375 0 0 0
40 1 17.291143640276996 7.86196493839375 1.574090808732479 0 0 0
94 1 6.29181238786926 9.434245373382899 3.149860269067973 0 0 0
42 1 20.436551867488205 7.86139163576774 1.572990902290941 0 0 0
110 1 12.575296915939271 3.1498626796510156 6.291812983939643 0 0 0
93 1 3.146492387649606 9.433427504016443 3.146491722464526 0 0 0
106 1 22.009544173515586 3.1456491767856205 6.2897491147863605 -1 0 0
107 1 3.1465256918074282 3.1465256918074274 6.290437525517751 0 0 0
117 1 12.564874104838768 6.306661371251918 6.306660145107691 0 0 0
116 1 9.44465953285953 6.306659775960288 6.306658461857103 0 0 0
115 1 6.304154325517117 6.304154325517117 6.30415318788642 0 0 0
108 1 6.289813957170398 3.1476384123393033 6.289813669690659 0 0 0
51 1 1.5729057622401732 1.5729057622401725 4.717568075925294 0 0 0
122 1 6.306659775960287 9.44465953285953 6.306658461857102 0 0 0
53 1 4.717723005454548 1.5735769165438598 4.717722844044348 0 0 0
109 1 9.434245301031657 3.1498609830521866 6.291811645397357 0 0 0
55 1 7.861962250345203 1.5740887424556156 4.718398845393605 0 0 0
121 1 3.1498609830521866 9.434245301031657 6.291811645397356 0 0 0
57 1 11.004774139177293 1.5739486510250427 4.718407733028975 0 0 0
120 1 22.009542042454008 9.433154384223739 6.289727899607486 -1 0 0
59 1 14.147585010129031 1.5740902700624306 4.7184011853828975 0 0 0
118 1 15.705380222402344 6.304158115964587 6.304157201492767 0 0 0
61 1 17.291822043395072 1.5735785467263228 4.717725460382617 0 0 0
119 1 18.861898667803036 6.289816822674159 6.289816754384301 0 0 0
63 1 20.4366374153604 1.5729064309978145 4.717569149733762 0 0 0
64 1 22.009544859507066 3.145342745621506 3.1453423223162837 -1 0 0
65 1 1.5735769165438604 4.717723005454548 4.717722844044348 0 0 0
66 1 3.1465955464559188 3.1465955464559188 3.1465950649374967 0 0 0
67 1 4.722482753282816 4.722482753282816 4.722482279359013 0 0 0
68 1 6.290437634074187 3.1465257955184613 3.1465252106702613 0 0 0
69 1 7.8649157595430665 4.722306915161019 4.7223061573688465 0 0 0
70 1 9.433427504016443 3.1464923876496056 3.1464917224645266 0 0 0
71 1 11.00477035979733 4.7214683231687955 4.721467582569606 0 0 0
72 1 12.576119700032871 3.1464935142592387 3.146492910057706 0 0 0
73 1 14.144625043135088 4.7223094939616725 4.7223088699857385 0 0 0
74 1 15.719108163545775 3.146528276467515 3.1465278207792395 0 0 0
75 1 17.28705854184032 4.722485625173814 4.722485341172431 0 0 0
76 1 18.862948305446174 3.146597278425236 3.146596886712133 0 0 0
77 1 20.435964120400982 4.717724277249628 4.717724199421813 0 0 0
78 1 22.009544163334493 6.289749072765186 3.145648899792291 -1 0 0
79 1 1.5740887424556145 7.8619622503452025 4.718398845393605 0 0 0
80 1 3.146525795518462 6.290437634074186 3.1465252106702613 0 0 0
81 1 4.7223069151610195 7.864915759543066 4.7223061573688465 0 0 0
82 1 6.289814121843766 6.289814121843766 3.1476375733167563 0 0 0
83 1 7.859118368946226 7.859118368946226 4.720628419109059 0 0 0
84 1 9.434245373382899 6.29181238786926 3.1498602690679736 0 0 0
85 1 11.004767317253725 7.864953865438677 4.727351978311418 0 0 0
86 1 12.575296812818797 6.291813651889262 3.149862044261527 0 0 0
87 1 14.150416723496834 7.859120659232483 4.720632709125142 0 0 0
88 1 15.719727766867827 6.289816895516023 3.147641145974255 0 0 0
89 1 17.28723018495427 7.864917964849892 4.722310553547457 0 0 0
90 1 18.863015693148647 6.290439749712274 3.1465278979672546 0 0 0
91 1 20.435449646154183 7.861963301015962 4.7184009215846325 0 0 0
92 1 22.009543395954772 9.43315176110018 3.1456429412100255 -1 0 0
127 1 1.572990269773561 1.57299026977356 7.86139074409541 0 0 0
128 1 4.718399043024091 1.57408886008434 7.8619625537763085 0 0 0
129 1 7.860868899491077 1.573515137454819 7.860868948446509 0 0 0
130 1 11.00477255913766 1.5741370950927345 7.861186486185137 0 0 0
131 1 14.148675584957177 1.5735173531094937 7.860871011031716 0 0 0
132 1 17.29114405192179 1.5740915383705953 7.861965061762392 0 0 0
133 1 20.43655202243204 1.572991315293611 7.8613917861027955 0 0 0
134 1 1.5740888600843403 4.718399043024092 7.8619625537763085 0 0 0
135 1 4.7223070451396545 4.722307045139654 7.864915193086763 0 0 0
136 1 7.859118496073124 4.720629493669881 7.859117140691122 0 0 0
137 1 11.004767374043679 4.727352829013169 7.864952494334088 0 0 0
138 1 14.150416734564253 4.720633558498178 7.85911954799441 0 0 0
139 1 17.287230167466223 4.722311193333334 7.864917639489635 0 0 0
140 1 20.43544966298831 4.718400968132694 7.861963731399994 0 0 0
141 1 1.5735151374548193 7.860868899491077 7.860868948446508 0 0 0
142 1 4.720629493669881 7.859118496073125 7.859117140691122 0 0 0
143 1 7.902149351083481 7.90214935108348 7.90214726940431 0 0 0
144 1 11.004763073251855 7.950585319775167 7.950582948248272 0 0 0
145 1 14.107378527351033 7.902153235517751 7.902151278830607 0 0 0
146 1 17.28890313912661 7.8591219345898 7.859120843123265 0 0 0
147 1 20.43602105572768 7.860870397898896 7.860870571897744 0 0 0
245 1 18.864193464119353 9.432495736922647 12.577044681330293 0 0 0
149 1 1.5729908619032007 1.572990861903201 11.004775897314524 0 0 0
244 1 15.727497161715844 9.417505942416916 12.592023520338039 0 0 0
151 1 4.718408227243741 1.5739491057120076 11.004774439110207 0 0 0
542 1 7.9505907512836735 11.004764105072919 14.058935446054523 0 0 0
153 1 7.861186910343165 1.5741374872811849 11.004772346895715 0 0 0
541 1 4.727358825046894 11.004767823219545 14.144577579074866 0 0 0
155 1 11.004771894822994 1.5725272355263615 11.004771408917703 0 0 0
493 1 7.64179980897112 11.004761014754383 11.00475710881269 0 0 0
157 1 14.148356294244754 1.5741400110018702 11.00477275362699 0 0 0
468 1 17.2821794496931 11.004768153417608 7.864956345865028 0 0 0
159 1 17.291134222536943 1.5739523288545676 11.004774959692776 0 0 0
243 1 12.440032376257523 9.569486721148468 12.440027623471495 0 0 0
161 1 20.43655113186533 1.572992281677304 11.004776225731717 0 0 0
162 1 22.009543486852355 3.145643137620068 9.433152307548532 -1 0 0
163 1 1.5739491057120079 4.718408227243741 11.004774439110207 0 0 0
164 1 3.1464925710715366 3.1464925710715357 9.433427676380319 0 0 0
165 1 4.721468985348758 4.721468985348756 11.004769507092925 0 0 0
166 1 6.291812483377455 3.1498613675733846 9.434244828940617 0 0 0
167 1 7.8649543429747935 4.7273536228083 11.004765521335202 0 0 0
168 1 9.432493125198173 3.145338932367716 9.43249207243898 0 0 0
169 1 11.004766681158296 4.717183583473681 11.004764541863613 0 0 0
170 1 12.57704588693885 3.1453412027292074 9.4324928127734 0 0 0
171 1 14.144579749907729 4.727358240020763 11.004765967322697 0 0 0
172 1 15.717726760869676 3.149865695015594 9.434246323523425 0 0 0
173 1 17.288067438222928 4.7214735535767405 11.004770294904397 0 0 0
174 1 18.863047069088974 3.146496045910828 9.433428993140845 0 0 0
175 1 20.43558897128938 4.718410399006132 11.004774899494171 0 0 0
176 1 22.009542141422443 6.289727829344691 9.433154909244124 -1 0 0
177 1 1.5741374872811853 7.861186910343166 11.004772346895715 0 0 0
178 1 3.149861367573385 6.291812483377455 9.434244828940615 0 0 0
179 1 4.727353622808301 7.864954342974794 11.0047655213352 0 0 0
180 1 6.306660262367884 6.306660262367884 9.444657794917775 0 0 0
181 1 7.950585770149566 7.950585770149567 11.00475997508506 0 0 0
182 1 9.417500100484185 6.282029525799784 9.417497629786029 0 0 0
183 1 11.004761014754383 7.64179980897112 11.00475710881269 0 0 0
184 1 12.59202853328238 6.2820320164954015 9.417499282780478 0 0 0
185 1 14.058939440016458 7.950589935078954 11.004760995784016 0 0 0
186 1 15.702871222857416 6.30666500548249 9.444660013796277 0 0 0
187 1 17.282178876910894 7.864957867035774 11.004766544724244 0 0 0
188 1 18.859674371433165 6.291815828702785 9.434246432474373 0 0 0
189 1 20.43539916417306 7.861188654953383 11.00477287923984 0 0 0
190 1 22.00954205454724 9.432783146546658 9.432783221564025 -1 0 0
191 1 3.145338932367716 9.432493125198173 9.43249207243898 0 0 0
192 1 6.282029525799783 9.417500100484185 9.417497629786029 0 0 0
193 1 9.56947574495721 9.56947574495721 9.569471583773913 0 0 0
194 1 12.44003824526207 9.569480424616954 9.569476302539897 0 0 0
195 1 15.727499166875276 9.417504145710206 9.41750192380539 0 0 0
196 1 18.864195305607947 9.432494864908007 9.43249403428282 0 0 0
242 1 9.569481794147787 9.569481794147787 12.440032172703274 0 0 0
198 1 1.5729918506131066 1.5729918506131058 14.14815935956942 0 0 0
241 1 6.282032804013824 9.41750215239923 12.592025367367148 0 0 0
200 1 4.7184019870344756 1.5740908369658275 14.147584975996688 0 0 0
467 1 14.058939709127602 11.004763853305601 7.950587296311883 0 0 0
202 1 7.860871500165952 1.5735180496632104 14.148674882517575 0 0 0
466 1 11.004760796558088 11.00476079655809 7.641796051129743 0 0 0
204 1 11.004772961584528 1.5741403865653383 14.148355574454824 0 0 0
465 1 7.950585319775167 11.004763073251857 7.950582948248271 0 0 0
206 1 14.148673624030526 1.573520357179096 14.148673473934467 0 0 0
239 1 22.009542554132477 9.432784031847243 12.576762712738235 -1 0 0
208 1 17.291141932760027 1.5740933745772754 14.147583480061678 0 0 0
240 1 3.145341868265726 9.43249401377696 12.577044546944643 0 0 0
210 1 20.43655133687323 1.5729930132818264 14.14815869275823 0 0 0
211 1 22.009543777171224 3.1456444998622946 12.576399139852185 -1 0 0
212 1 1.5740908369658277 4.7184019870344756 14.147584975996686 0 0 0
213 1 3.14649404433933 3.1464940443393297 12.576119801724966 0 0 0
214 1 4.722310418714055 4.722310418714055 14.144623947033871 0 0 0
215 1 6.291814154542828 3.1498635880865877 12.575296113644706 0 0 0
216 1 7.859121458977295 4.720634798085103 14.150414593429241 0 0 0
217 1 9.432494013776958 3.1453418682657266 12.577044546944645 0 0 0
218 1 11.004767823219545 4.727358825046894 14.144577579074866 0 0 0
219 1 12.577045540966571 3.1453439727637216 12.577044346545097 0 0 0
220 1 14.15041506487444 4.720638757936977 14.150413476478104 0 0 0
221 1 15.717725601752745 3.1498678637574415 12.575295960178702 0 0 0
222 1 17.287227958403424 4.7223145126723445 14.144623290892255 0 0 0
223 1 18.86304604144122 3.146497599211441 12.576119700431944 0 0 0
224 1 20.435448851264155 4.718404064722286 14.147584658400767 0 0 0
225 1 22.009542546096824 6.289729585515848 12.576394027990151 -1 0 0
226 1 1.5735180496632113 7.860871500165951 14.148674882517575 0 0 0
227 1 3.1498635880865886 6.291814154542827 12.575296113644706 0 0 0
228 1 4.720634798085103 7.859121458977295 14.15041459342924 0 0 0
229 1 6.30666239692613 6.30666239692613 12.564871906323033 0 0 0
230 1 7.9021543680829724 7.9021543680829724 14.10737485171466 0 0 0
231 1 9.41750215239923 6.282032804013823 12.592025367367148 0 0 0
232 1 11.004764105072919 7.9505907512836735 14.058935446054523 0 0 0
233 1 12.592027333989266 6.282035566516319 12.592024581345013 0 0 0
234 1 14.107375265422782 7.902157602515082 14.107372627612321 0 0 0
235 1 15.702869854051924 6.306667200110688 12.5648714357293 0 0 0
236 1 17.288899909224863 7.859124660915185 14.150413466832111 0 0 0
237 1 18.859672886002997 6.291817603522643 12.57529622394046 0 0 0
238 1 20.436019918591303 7.860873104899141 14.14867428434559 0 0 0
464 1 4.727352829013168 11.004767374043679 7.864952494334087 0 0 0
544 1 14.05893609699832 11.004764769727444 14.058932917883919 0 0 0
543 1 11.004762808915851 11.004762808915851 14.367713007860639 0 0 0
496 1 17.292350355932335 11.004767687293619 11.004765865460117 0 0 0
495 1 14.36771833011208 11.004762559750882 11.004759129041917 0 0 0
492 1 4.717183583473681 11.004766681158296 11.004764541863613 0 0 0
686 3 11.004759833489446 11.004759833489448 11.004754443051501 0 0 0
463 1 1.5741370950927347 11.00477255913766 7.861186486185137 0 0 0
546 1 20.43539796991234 11.004773370997023 14.148354753315763 0 0 0
545 1 17.282175638230665 11.004768706081775 14.144576757536834 0 0 0
540 1 1.5741403865653383 11.004772961584528 14.148355574454824 0 0 0
497 1 20.437009972233987 11.004772317050566 11.00477194284077 0 0 0
469 1 20.435399354770944 11.00477298309356 7.861188325658311 0 0 0
491 1 1.5725272355263613 11.004771894822996 11.004771408917703 0 0 0
343 1 18.86304482671869 9.43343031510463 18.863044301302736 0 0 0
247 1 1.5729074897159472 1.5729074897159467 17.291978081787665 0 0 0
48 1 15.71981622358948 9.43315651497648 22.009542009204164 0 0 -1
249 1 4.717726307619949 1.5735790337164635 17.2918217562058 0 0 0
47 1 12.576762667837952 9.432784176909177 22.009541089334057 0 0 -1
251 1 7.861965381351603 1.5740922153410948 17.2911431831467 0 0 0
46 1 9.432783505331374 9.432783505331374 22.00954058998842 0 0 -1
253 1 11.004774654489907 1.5739528707920019 17.291133317212672 0 0 0
45 1 6.28972858555805 9.43315483303952 22.009540699171975 0 0 -1
255 1 14.147582881591983 1.5740936035314608 17.29114166962573 0 0 0
39 1 15.720328278083558 6.289221121221468 22.009542275896113 0 0 -1
257 1 17.291819652979783 1.5735805633356146 17.29182005005406 0 0 0
37 1 12.576393624922543 6.289729915771714 22.00954109944063 0 0 -1
259 1 20.436636676579763 1.5729080783980307 17.29197733410823 0 0 0
260 1 22.00954477126665 3.145651926449078 15.71979903183895 -1 0 0
261 1 1.5735790337164632 4.717726307619949 17.291821756205795 0 0 0
262 1 3.1465289251811677 3.1465289251811663 15.719108081470914 0 0 0
263 1 4.7224865489211565 4.7224865489211565 17.287057449518663 0 0 0
264 1 6.289817606710303 3.1476428079003798 15.719726893125024 0 0 0
265 1 7.864918669880273 4.7223123257600985 17.287228183941693 0 0 0
266 1 9.434247032920782 3.149866640387919 15.71772529030736 0 0 0
267 1 11.00477113291178 4.721474293793455 17.28806554763762 0 0 0
268 1 12.575296510113914 3.1498682775145004 15.717724468553213 0 0 0
269 1 14.144623905991068 4.722314855123363 17.287226638890587 0 0 0
270 1 15.7197253724059 3.147646184639148 15.719725008352137 0 0 0
271 1 17.28705620967526 4.722489503055013 17.287055860407158 0 0 0
272 1 18.86301382209744 3.146531325340661 15.7191068533673 0 0 0
273 1 20.43596346462434 4.717727554012941 17.291821088865497 0 0 0
274 1 22.00954351527448 6.289221301934792 15.720328621913728 -1 0 0
275 1 1.5740922153410946 7.861965381351603 17.2911431831467 0 0 0
276 1 3.14764280790038 6.289817606710302 15.719726893125024 0 0 0
277 1 4.7223123257600985 7.864918669880273 17.28722818394169 0 0 0
278 1 6.3041592580605625 6.304159258060564 15.705377761547673 0 0 0
279 1 7.859122829861265 7.859122829861264 17.288900024833598 0 0 0
280 1 9.444662136629455 6.306665982194039 15.702868285665975 0 0 0
281 1 11.0047683319525 7.8649584397281265 17.282176008187562 0 0 0
282 1 12.564873237267435 6.306667628965509 15.702867375146512 0 0 0
283 1 14.150414825603255 7.859124884875012 17.288897816482194 0 0 0
284 1 15.705377474971694 6.304162726563939 15.705375944274564 0 0 0
285 1 17.287227056226712 7.864921079544876 17.287226080409518 0 0 0
286 1 18.861896120150227 6.2898205957194975 15.719725510723512 0 0 0
287 1 20.43544856492869 7.861966570603323 17.29114224028143 0 0 0
288 1 22.009543359154783 9.433156614220763 15.719816239766725 -1 0 0
289 1 3.149866640387919 9.434247032920783 15.71772529030736 0 0 0
290 1 6.30666598219404 9.444662136629454 15.702868285665975 0 0 0
291 1 9.4175050239017 9.4175050239017 15.727495392875152 0 0 0
292 1 12.592025860300307 9.417506353639217 15.727493998588464 0 0 0
293 1 15.702868152494231 9.44466401146157 15.70286611139911 0 0 0
294 1 18.859671238932048 9.434248565033815 15.717723701796789 0 0 0
35 1 9.43315483303952 6.289728585558051 22.009540699171975 0 0 -1
296 1 1.572938536336239 1.5729385363362394 20.436605850362096 0 0 0
342 1 15.71772432200903 9.434248641124425 18.859669807247847 0 0 0
298 1 4.7175698416223435 1.5729067407630624 20.436636910259843 0 0 0
31 1 3.1456496612524862 6.289749468547812 22.00954339905104 0 0 -1
300 1 7.861391963244839 1.572991798487635 20.43655124074829 0 0 0
341 1 12.577045639734125 9.432495966148075 18.864191137858132 0 0 0
302 1 11.004775603789344 1.5729927343492138 20.436550229293584 0 0 0
340 1 9.432495299004357 9.432495299004357 18.8641924103794 0 0 0
304 1 14.148157721090726 1.5729931034140205 20.43655082755109 0 0 0
19 1 6.289749468547812 3.145649661252486 22.00954339905104 0 0 -1
306 1 17.291976787303234 1.5729079952583178 20.436636460878926 0 0 0
339 1 6.291816744772223 9.43424718728534 18.85967207564447 0 0 0
308 1 20.43660596453019 1.5729390342636635 20.43660577376646 0 0 0
309 1 22.009545298006177 3.1453445902743704 18.864202057814875 -1 0 0
310 1 1.5729067407630621 4.717569841622344 20.436636910259843 0 0 0
311 1 3.1465977975813795 3.1465977975813804 18.862947955436315 0 0 0
312 1 4.7177249874484595 4.71772498744846 20.435963202213166 0 0 0
313 1 6.29044039654301 3.1465290367427348 18.863014854771606 0 0 0
314 1 7.861963978270356 4.718401964898922 20.435448196904446 0 0 0
315 1 9.43342903013697 3.146496945375338 18.8630457086066 0 0 0
316 1 11.004774610748672 4.718411182529866 20.435587456372154 0 0 0
317 1 12.576119383736 3.146498144034865 18.863044974448822 0 0 0
318 1 14.147584159922774 4.718404335275433 20.435447712879956 0 0 0
319 1 15.719106404876987 3.1465314248266676 18.863013437466222 0 0 0
320 1 17.291820780404286 4.717727462815909 20.435962885435746 0 0 0
321 1 18.862946979371625 3.146599358654885 18.862947057074322 0 0 0
322 1 20.436637143192197 4.717570795490194 20.43663684677251 0 0 0
323 1 22.009544860292532 6.289751959008992 18.863894391905735 -1 0 0
324 1 1.5729917984876343 7.86139196324484 20.43655124074829 0 0 0
325 1 3.146529036742734 6.29044039654301 18.863014854771606 0 0 0
326 1 4.718401964898922 7.861963978270356 20.435448196904446 0 0 0
327 1 6.289817885357944 6.2898178853579445 18.861896695534853 0 0 0
328 1 7.860871259387964 7.860871259387965 20.436019003689697 0 0 0
329 1 9.43424718728534 6.291816744772222 18.85967207564447 0 0 0
330 1 11.004773079933486 7.861189281849346 20.435397172647864 0 0 0
331 1 12.575296694079695 6.291818115882109 18.85967104011875 0 0 0
332 1 14.14867421196468 7.86087332939012 20.43601834949619 0 0 0
333 1 15.719725695229897 6.289820773492054 18.861894978118897 0 0 0
334 1 17.29114223247729 7.861966468527862 20.435447658561046 0 0 0
335 1 18.863014185941818 6.290442453704334 18.863013901007573 0 0 0
336 1 20.43655144218035 7.861393011371995 20.43655102728377 0 0 0
337 1 22.009544481515135 9.433153486493978 18.863899770647453 -1 0 0
338 1 3.146496945375338 9.433429030136972 18.863045708606595 0 0 0
33 1 6.289218253191516 6.289218253191517 22.00954125399515 0 0 -1
591 1 11.0047678440381 11.0047678440381 17.29234747618048 0 0 0
641 1 14.148354844141508 11.004773379343774 20.435396352295573 0 0 0
640 1 11.004772374173058 11.00477237417306 20.437007929453078 0 0 0
639 1 7.861189281849346 11.004773079933486 20.435397172647864 0 0 0
593 1 17.288064312452256 11.00477200732067 17.288063163129504 0 0 0
592 1 14.144578352555031 11.004768769387143 17.28217337146098 0 0 0
590 1 7.8649584397281265 11.0047683319525 17.282176008187562 0 0 0
589 1 4.721474293793454 11.004771132911781 17.288065547637622 0 0 0
17 1 3.1453430037535006 3.145343003753501 22.009544259455087 0 0 -1
21 1 9.433152001431948 3.145643712044892 22.0095424426417 0 0 -1
23 1 12.576398374318009 3.1456447392991658 22.00954273388483 0 0 -1
15 1 22.009545446962473 3.1450473637530445 22.00954496523496 -1 0 -1
25 1 15.71979838187059 3.1456517541118085 22.009543991520708 0 0 -1
27 1 18.864201998887225 3.1453443995205417 22.009544699487073 0 0 -1
29 1 22.009545104697896 6.289409062549719 22.0095445123184 -1 0 -1
43 1 22.009545066181076 9.433042512423786 22.009544462805597 -1 0 -1
44 1 3.145643712044892 9.433152001431948 22.0095424426417 0 0 -1
41 1 18.863894501085724 6.2897516565579625 22.009544094539898 0 0 -1
49 1 18.86390001302754 9.433153295588799 22.009543526674555 0 0 -1
462 1 18.86301470599656 18.86301470599656 6.2904419442422 0 0 0
345 1 4.718408348290433 11.00477415507339 1.5739478477069666 0 0 0
461 1 15.719726437358148 18.861896715692524 6.289819757420967 0 0 0
460 1 12.575296859344418 18.85967346712273 6.291816634650258 0 0 0
459 1 9.434246695512519 18.859674595044297 6.291815208164272 0 0 0
349 1 17.291133984916044 11.004774543695051 1.573951399260242 0 0 0
458 1 6.289816822674159 18.861898667803036 6.289816754384302 0 0 0
104 1 15.720328925831028 22.00954328914924 6.289220754183857 0 -1 0
352 1 1.5729916094605039 14.148158648492318 1.5729910432166812 0 0 0
101 1 6.289217508777443 22.00954249342964 6.289217786418761 0 -1 0
354 1 4.718401645114591 14.147584706327397 1.574089522591383 0 0 0
103 1 12.576393975279347 22.00954235501314 6.289729271963787 0 -1 0
356 1 7.8608712624783506 14.148675159168517 1.5735165251390615 0 0 0
102 1 9.43315438422374 22.009542042454008 6.289727899607486 0 -1 0
358 1 11.004772866183583 14.148356087321577 1.5741389904086576 0 0 0
100 1 3.145649176785621 22.009544173515586 6.2897491147863605 0 -1 0
360 1 14.1486736799922 14.1486736799922 1.5735190293804735 0 0 0
54 1 6.2897490727651855 22.009544163334493 3.145648899792291 0 -1 0
362 1 17.291142058870616 14.147583106290591 1.5740923417999884 0 0 0
453 1 12.56487342513117 15.702870498466 6.306665243624876 0 0 0
364 1 20.436551363181138 14.148157951692774 1.572992297465206 0 0 0
452 1 9.444661547342525 15.702871520174797 6.306663492653483 0 0 0
366 1 1.572907220595692 17.291977811096082 1.5729066767468771 0 0 0
60 1 15.719798704409506 22.009544626049507 3.1456511045985036 0 -1 0
368 1 4.717725823322177 17.291821758466465 1.5735779893187654 0 0 0
50 1 22.00954541462648 22.00954541462648 3.145046741977353 -1 -1 0
370 1 7.861964938393751 17.291143640276996 1.5740908087324796 0 0 0
105 1 18.863894872819102 22.009544716427275 6.289751382414926 0 -1 0
372 1 11.004774543695051 17.291133984916044 1.573951399260241 0 0 0
99 1 22.009545045051286 22.009545045051286 6.289408646312655 -1 -1 0
374 1 14.147583106290591 17.291142058870616 1.5740923417999875 0 0 0
62 1 18.8642021796633 22.009545199967746 3.145343797536324 0 -1 0
376 1 17.29181995517832 17.29181995517832 1.5735796939435618 0 0 0
344 1 1.572990884535668 11.004775283487609 1.5729902108173577 0 0 0
378 1 20.436636756364386 17.291977023948878 1.5729073534313147 0 0 0
58 1 12.57639851869642 22.00954361995447 3.145644015995903 0 -1 0
380 1 1.5729383936197434 20.43660612793331 1.57293787730076 0 0 0
451 1 6.304158115964588 15.705380222402344 6.304157201492767 0 0 0
382 1 4.717569534277149 20.436637323884163 1.5729059784813888 0 0 0
56 1 9.433151761100182 22.009543395954772 3.145642941210026 0 -1 0
384 1 7.86139163576774 20.436551867488205 1.57299090229094 0 0 0
450 1 3.1476417673170283 15.71972800436694 6.289816586087574 0 0 0
386 1 11.004775523342605 20.43655096597939 1.5729917707929941 0 0 0
449 1 22.009543289149242 15.720328925831028 6.289220754183857 -1 0 0
388 1 14.148157951692776 20.436551363181135 1.572992297465206 0 0 0
52 1 3.1453427456215066 22.009544859507066 3.1453423223162833 0 -1 0
390 1 17.291977023948878 20.436636756364386 1.5729073534313154 0 0 0
454 1 15.705378129026847 15.705378129026847 6.304160950208143 0 0 0
392 1 20.436606005812884 20.436606005812884 1.5729384212406843 0 0 0
393 1 1.5739486510250436 11.004774139177291 4.718407733028974 0 0 0
457 1 3.1465281866727333 18.863015857503463 6.290439765906893 0 0 0
448 1 18.859673467122732 12.575296859344418 6.291816634650259 0 0 0
447 1 15.702870498465998 12.56487342513117 6.306665243624875 0 0 0
456 1 22.009544716427275 18.8638948728191 6.289751382414926 -1 0 0
455 1 18.861896715692524 15.719726437358146 6.289819757420968 0 0 0
399 1 20.435589094057846 11.004774498893745 4.71841002169782 0 0 0
400 1 22.00954361995447 12.57639851869642 3.145644015995903 -1 0 0
401 1 1.5740902700624315 14.147585010129031 4.718401185382896 0 0 0
402 1 3.1464935142592383 12.576119700032871 3.1464929100577064 0 0 0
403 1 4.7223094939616725 14.14462504313509 4.722308869985739 0 0 0
404 1 6.291813651889263 12.575296812818797 3.1498620442615266 0 0 0
405 1 7.859120659232483 14.150416723496832 4.720632709125142 0 0 0
406 1 9.43249374048003 12.57704580387268 3.1453403683698276 0 0 0
407 1 11.00476765430703 14.144579907516759 4.727356830235667 0 0 0
408 1 12.577045533310006 12.577045533310006 3.1453426042489507 0 0 0
409 1 14.150415424507862 14.150415424507862 4.72063691677018 0 0 0
410 1 15.717725838125508 12.575296524489351 3.1498665750658104 0 0 0
411 1 17.28722849169966 14.1446242196862 4.722313234479152 0 0 0
412 1 18.863046256517794 12.576119482786751 3.146496718693274 0 0 0
413 1 20.435449023619366 14.147584621369182 4.718403358040969 0 0 0
414 1 22.009544626049507 15.719798704409506 3.145651104598503 -1 0 0
415 1 1.5735785467263226 17.291822043395072 4.717725460382618 0 0 0
416 1 3.1465282764675147 15.719108163545775 3.14652782077924 0 0 0
417 1 4.722485625173814 17.28705854184032 4.722485341172431 0 0 0
418 1 6.289816895516024 15.719727766867827 3.147641145974255 0 0 0
419 1 7.864917964849893 17.28723018495427 4.722310553547456 0 0 0
420 1 9.434246691283162 15.717726713035189 3.149864844435671 0 0 0
421 1 11.004770964745978 17.28806782849366 4.721472432047514 0 0 0
422 1 12.575296524489351 15.717725838125506 3.1498665750658104 0 0 0
423 1 14.1446242196862 17.28722849169966 4.722313234479152 0 0 0
424 1 15.7197257713435 15.7197257713435 3.1476447507009393 0 0 0
425 1 17.287056784940017 17.287056784940013 4.722488464002037 0 0 0
426 1 18.863014137002665 15.719106817740949 3.1465304286920586 0 0 0
427 1 20.43596362532655 17.2918213071653 4.717726782233916 0 0 0
428 1 22.009545199967746 18.864202179663305 3.145343797536325 -1 0 0
429 1 1.5729064309978138 20.4366374153604 4.7175691497337615 0 0 0
430 1 3.1465972784252365 18.862948305446174 3.1465968867121323 0 0 0
431 1 4.71772427724963 20.435964120400982 4.717724199421813 0 0 0
432 1 6.290439749712274 18.863015693148647 3.1465278979672546 0 0 0
433 1 7.861963301015962 20.435449646154183 4.718400921584633 0 0 0
434 1 9.433428657260608 18.863047029914924 3.1464954812826784 0 0 0
435 1 11.004774498893745 20.435589094057846 4.71841002169782 0 0 0
436 1 12.576119482786751 18.863046256517794 3.1464967186932746 0 0 0
437 1 14.147584621369182 20.435449023619366 4.718403358040968 0 0 0
438 1 15.719106817740949 18.863014137002665 3.1465304286920586 0 0 0
439 1 17.2918213071653 20.43596362532655 4.717726782233916 0 0 0
440 1 18.862947286866593 18.862947286866593 3.1465985752719 0 0 0
441 1 20.43663726665799 20.43663726665799 4.717570149766914 0 0 0
442 1 22.00954235501314 12.576393975279347 6.289729271963787 -1 0 0
443 1 3.1498626796510156 12.575296915939271 6.291812983939643 0 0 0
444 1 6.306661371251918 12.564874104838768 6.30666014510769 0 0 0
445 1 9.417501293516112 12.59202874133279 6.282030391668976 0 0 0
446 1 12.592027820154794 12.592027820154792 6.282033262071515 0 0 0
350 1 20.43655096597939 11.004775523342605 1.5729917707929943 0 0 0
587 1 18.863044394673707 18.863044394673707 12.576119488601567 0 0 0
207 1 15.71981553537708 22.009543555821434 12.576393020376642 0 -1 0
586 1 17.291140740754503 20.435448224356936 14.147583100225539 0 0 0
585 1 15.717723782509863 18.859670360186556 12.575296084106885 0 0 0
584 1 14.148672926040177 20.436019088485352 14.148672897276965 0 0 0
583 1 12.577045507727089 18.86419224359228 12.57704453654255 0 0 0
582 1 11.004773370997022 20.43539796991234 14.148354753315761 0 0 0