LAMMPS data file via write_data, version 2 Aug 2023, timestep = 19, units = metal

687 atoms
3 atom types

0 22.009546999999998 xlo xhi
0 22.009546999999998 ylo yhi
0 22.009546999999998 zlo zhi

Masses

1 183.84
2 1.008
3 4.0026

Atoms # atomic

1 1 22.009542485190376 22.008884250799195 22.00954404382087 -1 -1 -1
2 1 1.5723007345153703 1.5715706927996729 1.5723023007256594 0 0 0
3 1 3.144410563349709 22.00882585832227 22.009543993703147 0 -1 -1
4 1 4.716594255552552 1.5714837273413254 1.572333934701968 0 0 0
5 1 6.288632559723887 22.00872059017994 22.009543885097205 0 -1 -1
6 1 7.8607223534861514 1.5713922835156808 1.572352748034816 0 0 0
7 1 9.432734981194844 22.008646451257903 22.009543799251635 0 -1 -1
8 1 11.004768863898583 1.5713589821822838 1.5723491586020837 0 0 0
9 1 12.576802774054933 22.008646454198402 22.00954380013489 0 -1 -1
10 1 14.148815416894601 1.5713922696838096 1.5723527313218437 0 0 0
11 1 15.720905274338968 22.00872059750085 22.009543887126434 0 -1 -1
12 1 17.292943609217197 1.5714837122413559 1.5723339113559418 0 0 0
13 1 18.865127364484128 22.008825875275353 22.00954399525509 0 -1 -1
14 1 20.43723720303522 1.5715706853802813 1.5723022894369694 0 0 0
15 1 22.009542467524447 3.1437281557188115 22.009544032237347 -1 0 -1
16 1 1.5723217633904176 4.715933269373429 1.5723233578652314 0 0 0
17 1 3.144466598240078 3.143749381395463 22.00954398359189 0 0 -1
18 1 4.716653677742803 4.715898794650091 1.572494758330241 0 0 0
19 1 6.28862744377354 3.1435965979735707 22.009543877404536 0 0 -1
20 1 7.860703671087798 4.715761330412282 1.572459762211623 0 0 0
21 1 9.432730692140249 3.1435468779737676 22.009543795267806 0 0 -1
22 1 11.004768804592329 4.715751250780389 1.572418767301647 0 0 0
23 1 12.576807039851941 3.143546854025596 22.009543796072894 0 0 -1
24 1 14.148833972270845 4.71576127712431 1.572459745174134 0 0 0
25 1 15.720910360828846 3.1435965569138262 22.009543879220356 0 0 -1
26 1 17.2928840295478 4.715898736767028 1.5724947402735185 0 0 0
27 1 18.865071293903227 3.143749347705813 22.00954398498902 0 0 -1
28 1 20.437216007273534 4.715933241082562 1.5723233503023173 0 0 0
29 1 22.009542324246727 6.287969511217803 22.00954393852752 -1 0 -1
30 1 1.572353206573762 7.860029748604316 1.5723548565026713 0 0 0
31 1 3.1445813021244318 6.288045907236379 22.009543902779974 0 0 -1
32 1 4.716861947483808 7.860176213201702 1.5726762831553034 0 0 0
33 1 6.28851565693823 6.2877566949915185 22.009543821228903 0 0 -1
34 1 7.860404738440898 7.85966352197304 1.5724232364143305 0 0 0
35 1 9.432666051704404 6.287752295167883 22.009543756812533 0 0 -1
36 1 11.004768701128976 7.859842537160157 1.5722982635029878 0 0 0
37 1 12.576871484918358 6.287752264863355 22.009543757392127 0 0 -1
38 1 14.149132667780611 7.859663462378261 1.572423216707777 0 0 0
39 1 15.721021920599602 6.287756617671252 22.009543822563128 0 0 -1
40 1 17.29267548635584 7.860176141544978 1.572676260598013 0 0 0
41 1 18.864956322447725 6.288045850896198 22.009543903855903 0 0 -1
42 1 20.437184243739814 7.860029719241009 1.5723548484793468 0 0 0
43 1 22.009542164018644 9.432000741834576 22.00954383374376 -1 0 -1
44 1 1.5723356611162107 11.003992742514992 1.5723373507222296 0 0 0
45 1 3.14457225644551 9.432015141691798 22.009543809869612 0 0 -1
46 1 4.716842384283362 11.003962292391362 1.5726210344718856 0 0 0
47 1 6.2886959692702895 9.431990756169096 22.009543752315974 0 0 -1
48 1 7.860598140182498 11.003906750390113 1.5727537384554502 0 0 0
49 1 9.432371981558182 9.431683311823488 22.009543708681125 0 0 -1
50 1 11.004768619135449 11.00387200790876 1.57132494987878 0 0 0
51 1 12.577165335834735 9.431683276578527 22.009543709029558 0 0 -1
52 1 14.148939103425255 11.003906715237004 1.572753721450533 0 0 0
53 1 15.720841359398037 9.431990697705032 22.009543753262133 0 0 -1
54 1 17.292694849381114 11.003962252810423 1.572621013858407 0 0 0
55 1 18.864965077862273 9.432015097903193 22.009543810628262 0 0 -1
56 1 20.437201564276698 11.003992727919856 1.5723373382636887 0 0 0
57 1 22.00954211270619 12.576021080524933 22.009543800161836 -1 0 -1
58 1 1.5723380593652634 14.148002787371023 1.5723397439118536 0 0 0
59 1 3.1445565792108665 12.575965193971992 22.009543778952203 0 0 -1
60 1 4.716825718420553 14.147760467933155 1.572662962218437 0 0 0
61 1 6.2886788868319705 12.57588382883651 22.009543727149463 0 0 -1
62 1 7.860385261464259 14.148145357126369 1.5724186876026875 0 0 0
63 1 9.432364868067328 12.57608691397997 22.009543690277795 0 0 -1
64 1 11.004768634631864 14.147892991979926 1.5722969294074534 0 0 0
65 1 12.57717237116854 12.576086910186875 22.009543690536837 0 0 -1
66 1 14.149152003760992 14.148145367779273 1.5724186651113263 0 0 0
67 1 15.720858347569623 12.575883811614666 22.009543727890613 0 0 -1
68 1 17.29271154616248 14.147760480377235 1.5726629394607394 0 0 0
69 1 18.864980653136655 12.575965184736253 22.0095437797365 0 0 -1
70 1 20.43719919643253 14.148002790394345 1.5723397307084943 0 0 0
71 1 22.009542195345908 15.720131495692582 22.009543854248186 -1 0 -1
72 1 1.5722983588824082 17.292162522065365 1.5722999959519914 0 0 0
73 1 3.1445481823075916 15.719981257435819 22.009543829338096 0 0 -1
74 1 4.716622571330724 17.292069472446464 1.5724810092525856 0 0 0
75 1 6.288485864236564 15.720128725630618 22.009543763616207 0 0 -1
76 1 7.860678512678938 17.29204333306528 1.5724504831808566 0 0 0
77 1 9.432660009391038 15.720004616709494 22.009543715842817 0 0 -1
78 1 11.004768721136065 17.29197711445099 1.5724207988005523 0 0 0
79 1 12.576877348785395 15.720004627193054 22.009543716332022 0 0 -1
80 1 14.148858951402104 17.292043371021553 1.5724504608678365 0 0 0
81 1 15.721051508797387 15.720128762807137 22.009543764775973 0 0 -1
82 1 17.29291492712617 17.292069517602126 1.5724809828163613 0 0 0
83 1 18.864989211177132 15.719981281649336 22.009543830238048 0 0 -1
84 1 20.43723917118985 17.292162541852854 1.5722999826570327 0 0 0
85 1 22.009542364254962 18.86443605631718 22.009543964710677 -1 0 -1
86 1 1.572297166760745 20.436577828980965 1.5722987517280829 0 0 0
87 1 3.144452377941003 18.864336160328982 22.00954392339499 0 0 -1
88 1 4.716572967709978 20.4365123906868 1.572327858243295 0 0 0
89 1 6.288603555548319 18.86428388977584 22.00954383396932 0 0 -1
90 1 7.860718707817514 20.436406955588023 1.5723560159192245 0 0 0
91 1 9.432727570172657 18.86420372541227 22.00954376338439 0 0 -1
92 1 11.004768826036214 20.436362628245796 1.572349858053517 0 0 0
93 1 12.576810017806249 18.864203744398 22.009543764195886 0 0 -1
94 1 14.148818982107912 20.436406981206527 1.5723559956037596 0 0 0
95 1 15.72093408474244 18.86428393432317 22.009543835601704 0 0 -1
96 1 17.292964799698268 20.436512426045137 1.572327834458418 0 0 0
97 1 18.865085324975553 18.864336193757097 22.009543924691908 0 0 -1
98 1 20.437240664535665 20.43657784346761 1.57229873893787 0 0 0
99 1 22.009542408921437 22.008825861176778 3.1444121293505907 -1 -1 0
100 1 1.5723323193204197 1.5714837255575607 4.71659583684399 0 0 0
101 1 3.1445914727046342 22.00879330196846 3.1445930696817337 0 -1 0
102 1 4.716903836454933 1.57172372205228 4.716905465706735 0 0 0
103 1 6.28875889536214 22.008718497274 3.1446292131488667 0 -1 0
104 1 7.86094004779361 1.5716455806151879 4.716972886296161 0 0 0
105 1 9.432784065429297 22.008642989692795 3.1446553201197793 0 -1 0
106 1 11.00476875951953 1.5715862731144001 4.716983473095519 0 0 0
107 1 12.576753573683837 22.008642997511362 3.144655302322331 0 -1 0
108 1 14.148597500375246 1.5716455691102085 4.716972846841477 0 0 0
109 1 15.720778810606888 22.008718509838253 3.1446291713101413 0 -1 0
110 1 17.292633775448664 1.571723705077124 4.71690541626051 0 0 0
111 1 18.864946309820233 22.008793310642037 3.1445930359000567 0 -1 0
112 1 20.437205345979578 1.571483720979469 4.71659581180912 0 0 0
113 1 22.009542393481766 3.143749375637747 3.1444681704353856 -1 0 0
114 1 1.5724931215761702 4.7158987893135675 4.716655285314645 0 0 0
115 1 3.1447333664798562 3.143934321837773 3.1447349681448187 0 0 0
116 1 4.717568294711014 4.716772365017063 4.717569942769636 0 0 0
117 1 6.288808924382667 3.1437987944316546 3.144771031670533 0 0 0
118 1 7.861067590076992 4.716381455425673 4.717368900628746 0 0 0
119 1 9.432821124987623 3.1437568903168547 3.144788333577698 0 0 0
120 1 11.004768713536286 4.716413620578664 4.717373589804714 0 0 0
121 1 12.576716488805872 3.1437568717455253 3.1447883188625707 0 0 0
122 1 14.148469858351113 4.71638140066555 4.717368864896527 0 0 0
123 1 15.720728753237555 3.1437987527953215 3.1447709956355294 0 0 0
124 1 17.29196920625095 4.7167723033987885 4.717569894633578 0 0 0
125 1 18.864804385451045 3.1439342884885284 3.144734937874375 0 0 0
126 1 20.437044415195377 4.715898762009214 4.716655265392405 0 0 0
127 1 22.009542269867772 6.288045897466298 3.144582920556403 -1 0 0
128 1 1.572674602619937 7.86017620629404 4.716863602295413 0 0 0
129 1 3.1448601199051027 6.288244414876879 3.1448617615252963 0 0 0
130 1 4.7180095031162725 7.861031120529809 4.7180111878707365 0 0 0
131 1 6.288887721170217 6.288134538831415 3.145176705396382 0 0 0
132 1 7.860865009740588 7.860091200835085 4.717912384686288 0 0 0
133 1 9.432819542757802 6.288060033668248 3.144965820219794 0 0 0
134 1 11.004768639579048 7.86090803476199 4.717303095098556 0 0 0
135 1 12.576717901503878 6.2880600017065635 3.1449658047869224 0 0 0
136 1 14.148672276044357 7.860091140490025 4.7179123420375655 0 0 0
137 1 15.720649760924594 6.288134462422791 3.145176669080264 0 0 0
138 1 17.291527785525155 7.861031046450551 4.718011139974259 0 0 0
139 1 18.864677401683565 6.288244352313486 3.1448617300552186 0 0 0
140 1 20.436862685200154 7.86017617498836 4.716863582892625 0 0 0
141 1 22.00954212774895 9.432015134099125 3.1445739251027036 -1 0 0
142 1 1.5726193230597638 11.003962288825203 4.716844073665121 0 0 0
143 1 3.1448641273977938 9.432096563317915 3.1448658147393096 0 0 0
144 1 4.7177901274217895 11.003935865718422 4.717791839086176 0 0 0
145 1 6.2894134889558995 9.432397347852167 3.145914098931352 0 0 0
146 1 7.862521952575249 11.003902801064564 4.720437960426473 0 0 0
147 1 9.432067922040222 9.431466893312136 3.1440851775421264 0 0 0
148 1 11.004768596817613 11.003880298576732 4.7104609934005595 0 0 0
149 1 12.577469346994592 9.431466862443822 3.1440851597008623 0 0 0
150 1 14.147015228465932 11.003902766777282 4.720437913053804 0 0 0
151 1 15.720123773366206 9.432397289577239 3.145914061050714 0 0 0
152 1 17.291747008290876 11.003935822748254 4.717791788604861 0 0 0
153 1 18.864673131843748 9.432096514680103 3.1448657816076 0 0 0
154 1 20.43691778409655 11.0039622696778 4.716844054531178 0 0 0
155 1 22.009542080470336 12.575965192408821 3.1445582654339486 -1 0 0
156 1 1.5726612537612956 14.147760469159923 4.7168274024934655 0 0 0
157 1 3.1448456011768786 12.575856140260495 3.1448473047614853 0 0 0
158 1 4.717981430817506 14.146861799811576 4.717983139557936 0 0 0
159 1 6.289395595611229 12.575460821171042 3.1458985580112713 0 0 0
160 1 7.860841357378515 14.147712477133993 4.717897748816272 0 0 0
161 1 9.432058446115054 12.576285965926091 3.144077837583985 0 0 0
162 1 11.004768608054093 14.146854862690878 4.717288276310465 0 0 0
163 1 12.577478762241146 12.576285960812442 3.144077812782042 0 0 0
164 1 14.148695843502038 14.14771249768335 4.717897691444971 0 0 0
165 1 15.72014159367273 12.575460805716897 3.145898513329686 0 0 0
166 1 17.29155573247264 14.146861820852598 4.717983078568909 0 0 0
167 1 18.864691561549197 12.575856131875577 3.1448472742148796 0 0 0
168 1 20.436875873165228 14.147760474541546 4.716827383039095 0 0 0
169 1 22.009542157462917 15.719981261538452 3.1445498407362873 -1 0 0
170 1 1.572479337226181 17.292069476457627 4.716624215599512 0 0 0
171 1 3.1448229399657075 15.719735083818255 3.144824619755441 0 0 0
172 1 4.717535904888646 17.291124878613033 4.717537583481675 0 0 0
173 1 6.288848547421362 15.719731749322266 3.145156109235832 0 0 0
174 1 7.86103409505218 17.29141587358411 4.7173472105536955 0 0 0
175 1 9.432803785128394 15.719689643445493 3.144955536434567 0 0 0
176 1 11.004768662797446 17.291324132656143 4.717355519573911 0 0 0
177 1 12.57673352349804 15.719689661877085 3.144955511416742 0 0 0
178 1 14.148503240652204 17.291415924286557 4.717347152905694 0 0 0
179 1 15.7206887611927 15.719731790585445 3.1451560567557717 0 0 0
180 1 17.292001436268478 17.291124929919107 4.71753751939536 0 0 0
181 1 18.864714371179552 15.719735110950499 3.14482457870549 0 0 0
182 1 20.43705800377683 17.292069498234202 4.71662419279243 0 0 0
183 1 22.009542301378037 18.86433616619873 3.1444539829006923 -1 0 0
184 1 1.5723262280543597 20.436512394282065 4.716574565976869 0 0 0
185 1 3.1447096725550368 18.864100687413913 3.144711304516059 0 0 0
186 1 4.716889964665837 20.436203045377006 4.716891606856001 0 0 0
187 1 6.288778530645959 18.864083137097676 3.1447559241417173 0 0 0
188 1 7.8609262807441445 20.436153103628257 4.716960844980466 0 0 0
189 1 9.432804123481336 18.86398650637378 3.144778579283691 0 0 0
190 1 11.004768736001287 20.43614733355512 4.716971532551282 0 0 0
191 1 12.576733373795165 18.863986530128358 3.14477855488903 0 0 0
192 1 14.148611212824255 20.43615313816444 4.716960798349258 0 0 0
193 1 15.720759009339865 18.864083188786346 3.1447558692115782 0 0 0
194 1 17.292647580981978 20.43620308497393 4.716891548590439 0 0 0
195 1 18.864827913552602 18.86410072753421 3.144711265056934 0 0 0
196 1 20.43721135266896 20.4365124086887 4.716574539936992 0 0 0
197 1 22.00954224305177 22.008720591439843 6.2886341419980605 -1 -1 0
198 1 1.5723510775235747 1.571392281620935 7.860723949874115 0 0 0
199 1 3.1446275598277382 22.008718497432724 6.28876050726269 0 -1 0
200 1 4.7169712077053445 1.5716455799528604 7.860941686125659 0 0 0
201 1 6.2888474699710875 22.008688360307204 6.288849131115706 0 -1 0
202 1 7.860784099390068 1.5719004538178316 7.860785781607518 0 0 0
203 1 9.43291294765507 22.00865147266845 6.289067158169322 0 -1 0
204 1 11.00476863515281 1.5721666893940982 7.861204386066617 0 0 0
205 1 12.576624446323553 22.00865148020198 6.289067134701073 0 -1 0
206 1 14.148753189706468 1.5719004490976924 7.860785748437559 0 0 0
207 1 15.720689956254006 22.00868837738048 6.28884908296903 0 -1 0
208 1 17.292566108441424 1.571645572021804 7.860941647321477 0 0 0
209 1 18.864909904724858 22.008718509383343 6.288760463675331 0 -1 0
210 1 20.43718626255483 1.5713922787166894 7.860723931406571 0 0 0
211 1 22.009542231314942 3.1435965909062182 6.288629031071889 -1 0 0
212 1 1.5724580765278473 4.715761326183683 7.860705289214466 0 0 0
213 1 3.144769375944558 3.1437987919796897 6.2888105398256595 0 0 0
214 1 4.717367210277336 4.71638145602256 7.861069244863596 0 0 0
215 1 6.289376904869103 3.1446649264833924 6.289378570116583 0 0 0
216 1 7.861928295681003 4.718591982225804 7.861929988128492 0 0 0
217 1 9.433168417328922 3.144728083175313 6.289471400927367 0 0 0
218 1 11.00476861011226 4.719524251765636 7.863203344950254 0 0 0
219 1 12.576368948034295 3.144728065596764 6.2894713750314075 0 0 0
220 1 14.147608933827435 4.718591935068851 7.861929955251929 0 0 0
221 1 15.720160496531783 3.1446648836257944 6.289378522426096 0 0 0
222 1 17.292170033689757 4.716381398195585 7.861069210880839 0 0 0
223 1 18.86476806911544 3.143798764132662 6.288810503873873 0 0 0
224 1 20.43707917599958 4.715761297590099 7.860705272194756 0 0 0
225 1 22.009542145346686 6.287756681631887 6.2885172835281065 -1 0 0
226 1 1.5724215224671303 7.85966351666945 7.8604063981400865 0 0 0
227 1 3.1451750223430115 6.288134535989185 6.288889371586223 0 0 0
228 1 4.7179106707270995 7.860091204356869 7.8608666938048195 0 0 0
229 1 6.291486978932019 6.290886892115893 6.291488665283376 0 0 0
230 1 7.868384796362202 7.868173583930011 7.868386501640356 0 0 0
231 1 9.433578371909126 6.289665059702161 6.290121432186857 0 0 0
232 1 11.00476858729481 7.867725361220324 7.8642805019450845 0 0 0
233 1 12.575958894433422 6.289665022317968 6.290121404810585 0 0 0
234 1 14.141152367064636 7.868173510703917 7.868386460301619 0 0 0
235 1 15.718050296424142 6.290886814238685 6.2914886215515935 0 0 0
236 1 17.29162644359631 7.860091123403151 7.860866652785237 0 0 0
237 1 18.864362264621583 6.28813447630775 6.288889329142298 0 0 0
238 1 20.43711556896101 7.859663487717372 7.860406377539696 0 0 0
239 1 22.00954203991505 9.431990746031609 6.288697638849446 -1 0 0
240 1 1.5727520024966506 11.00390674797342 7.860599827703289 0 0 0
241 1 3.1459123841730894 9.432397346761483 6.289415176707387 0 0 0
242 1 4.720436230223876 11.00390280266011 7.862523655580309 0 0 0
243 1 6.293245567265014 9.435095687207973 6.293247278070335 0 0 0
244 1 7.882482865579457 11.003909054732658 7.882484576710938 0 0 0
245 1 9.431511049488883 9.430513323880364 6.289425132029147 0 0 0
246 1 11.004768586562436 11.00390283761078 7.821582618259215 0 0 0
247 1 12.578026137558288 9.430513293250577 6.289425102979174 0 0 0
248 1 14.12705426213971 11.003909024972184 7.882484536859935 0 0 0
249 1 15.716291579747576 9.435095622267983 6.293247220862328 0 0 0
250 1 17.28910079484363 11.003902759471348 7.862523609901874 0 0 0
251 1 18.863624721137718 9.432397294823314 6.289415137710345 0 0 0
252 1 20.436784959031726 11.003906727087198 7.860599809114428 0 0 0
253 1 22.009542001379792 12.575883825864574 6.2886805728333615 -1 0 0
254 1 1.5724169536080816 14.148145357141075 7.860386945793596 0 0 0
255 1 3.145896830021695 12.575460820215804 6.289397296616497 0 0 0
256 1 4.717896020717715 14.147712476038388 7.860843058393625 0 0 0
257 1 6.293238448039226 12.572735899145787 6.293240166290241 0 0 0
258 1 7.8683673790419215 14.139630634879925 7.868369087676583 0 0 0
259 1 9.431503674922247 12.577296386324138 6.28940934902264 0 0 0
260 1 11.004768602031644 14.14007320110254 7.864260017792042 0 0 0
261 1 12.578033501720626 12.577296382689406 6.289409310937525 0 0 0
262 1 14.141169778520839 14.139630668653686 7.868369032377965 0 0 0
263 1 15.716298663874932 12.57273589098873 6.293240101404107 0 0 0
264 1 17.29164102630852 14.147712502702257 7.860843004804666 0 0 0
265 1 18.863640205636 12.575460810237978 6.289397254650362 0 0 0
266 1 20.4371200251711 14.1481453673497 7.860386924377371 0 0 0
267 1 22.0095420571438 15.72012873199787 6.288487526215094 -1 0 0
268 1 1.5724487731723449 17.292043335083413 7.860680162769616 0 0 0
269 1 3.14515439722386 15.719731750366952 6.288850228782699 0 0 0
270 1 4.717345500978689 17.29141587130566 7.861035773908808 0 0 0
271 1 6.2914614803715585 15.716935550658405 6.291463187010288 0 0 0
272 1 7.86192325336386 17.28920664953219 7.861924954880229 0 0 0
273 1 9.433572565833996 15.718118743715916 6.290098411135297 0 0 0
274 1 11.004768607860754 17.288252172228844 7.8631986678336085 0 0 0
275 1 12.575964655495536 15.718118766377076 6.29009837337112 0 0 0
276 1 14.147613943314747 17.289206712787017 7.8619249018745645 0 0 0
277 1 15.718075705875059 15.71693560732161 6.2914631150492815 0 0 0
278 1 17.292191654280895 17.29141593506838 7.861035713476403 0 0 0
279 1 18.864382738746635 15.719731785662523 6.2888501810661435 0 0 0
280 1 20.437088344106332 17.292043361415324 7.860680140463701 0 0 0
281 1 22.00954216482246 18.864283897484317 6.288605171362835 -1 0 0
282 1 1.572354333822989 20.436406957288295 7.860720317861763 0 0 0
283 1 3.1447542456620097 18.86408313910746 6.288780172509387 0 0 0
284 1 4.716959158899346 20.43615310096875 7.860927929618712 0 0 0
285 1 6.289353578416196 18.863152030106146 6.2893552598192874 0 0 0
286 1 7.860774184630283 20.435867717956636 7.860775870738113 0 0 0
287 1 9.433156857123135 18.863037609024644 6.289452849863079 0 0 0
288 1 11.004768630561337 20.435586743617097 7.861183971149386 0 0 0
289 1 12.576380459590961 18.86303763724874 6.2894528159946 0 0 0
290 1 14.148763086499404 20.43586775147219 7.860775833278921 0 0 0
291 1 15.720183744609393 18.863152092362384 6.289355197350965 0 0 0
292 1 17.292578120863343 20.4361531508992 7.860927884730687 0 0 0
293 1 18.864783086873555 18.864083178695562 6.28878012177733 0 0 0
294 1 20.437182943526597 20.436406972690314 7.86072030142496 0 0 0
295 1 22.009542111479995 22.00864645169709 9.43273657705572 -1 -1 0
296 1 1.5723474671058586 1.5713589824986562 11.004770464334253 0 0 0
297 1 3.144653629047952 22.0086429880906 9.432785684224433 0 -1 0
298 1 4.71698177851584 1.5715862731530812 11.004770395970349 0 0 0
299 1 6.289065464743871 22.008651469104322 9.43291460992805 0 -1 0
300 1 7.861202690679384 1.5721666887331416 11.00477031467158 0 0 0
301 1 9.432605446545645 22.008648027465206 9.432607138165862 0 -1 0
302 1 11.00476858935569 1.570934753270608 11.004770285014978 0 0 0
303 1 12.576931765216504 22.008648040011682 9.432607128267387 0 -1 0
304 1 14.148334488859364 1.5721666926048221 11.004770315968532 0 0 0
305 1 15.72047174981963 22.008651496759196 9.432914586926916 0 -1 0
306 1 17.29255540620809 1.57158627280953 11.004770397619923 0 0 0
307 1 18.864883593310097 22.008643005087333 9.432785667937182 0 -1 0
308 1 20.437189734744102 1.5713589806702737 11.004770465122794 0 0 0
309 1 22.009542105459694 3.1435468738510504 9.432732291992757 -1 0 0
310 1 1.57241706236241 4.715751254448112 11.004770425509996 0 0 0
311 1 3.1447866401976476 3.1437568909508258 9.43282274925828 0 0 0
312 1 4.71737188711315 4.716413630391087 11.004770365836581 0 0 0
313 1 6.289469703749525 3.144728086523373 9.433170083540666 0 0 0
314 1 7.863201641030676 4.719524260351408 11.004770298294643 0 0 0
315 1 9.432242128728145 3.1448281624902426 9.432243824603203 0 0 0
316 1 11.004768569859865 4.709242008859194 11.004770272215412 0 0 0
317 1 12.577295056280308 3.1448281457215757 9.432243816896987 0 0 0
318 1 14.146335489170005 4.719524210500358 11.004770299540612 0 0 0
319 1 15.720067491335517 3.1447280497753645 9.433170066582045 0 0 0
320 1 17.29216525025823 4.716413573434985 11.004770367340855 0 0 0
321 1 18.864750565666565 3.1437568688371544 9.432822726468494 0 0 0
322 1 20.437120061824746 4.715751233162502 11.004770426218146 0 0 0
323 1 22.009542046664865 6.287752289904823 9.432667685281688 -1 0 0
324 1 1.5722965371124784 7.85984254327386 11.00477035788128 0 0 0
325 1 3.144964108487888 6.288060038347312 9.432821194230817 0 0 0
326 1 4.717301377086142 7.860908048202024 11.004770317512227 0 0 0
327 1 6.290119722729051 6.289665066223334 9.433580056550484 0 0 0
328 1 7.864278793137534 7.867725371196845 11.004770283350892 0 0 0
329 1 9.432903468959358 6.297149713607901 9.432905173297026 0 0 0
330 1 11.00476857376993 7.813017411172503 11.004770274702997 0 0 0
331 1 12.576633670965512 6.2971496826240525 9.432905161248005 0 0 0
332 1 14.145258308146925 7.867725314119289 11.004770284316539 0 0 0
333 1 15.719417402599518 6.289664991131931 9.433580031456644 0 0 0
334 1 17.292235671492822 7.860907971152304 11.004770318670483 0 0 0
335 1 18.864572991351167 6.288059979579813 9.43282118314514 0 0 0
336 1 20.437240462554158 7.85984250826868 11.004770358540805 0 0 0
337 1 22.009541973049192 9.431683305734037 9.4323736531605 -1 0 0
338 1 1.5713232065053928 11.003872011097698 11.004770304281362 0 0 0
339 1 3.144083445914659 9.431466897171042 9.432069605271947 0 0 0
340 1 4.710459267030766 11.003880305897908 11.004770289601456 0 0 0
341 1 6.289423412141665 9.430513330964986 9.431512748345224 0 0 0
342 1 7.821580915977346 11.003902844247119 11.00477028280973 0 0 0
343 1 9.457269488358532 9.45506610363298 9.457271188672753 0 0 0
344 1 20.43724067421746 20.43657785300069 20.437242259051395 0 0 0
345 1 12.552267679165093 9.455066065017379 9.457271171963953 0 0 0
346 1 14.187956222219505 11.003902805444762 11.004770283283243 0 0 0
347 1 15.720113654092971 9.430513259661785 9.431512720301475 0 0 0
348 1 17.29907773268687 11.003880263778633 11.004770290397882 0 0 0
349 1 18.86545354123319 9.431466844232201 9.432069586432696 0 0 0
350 1 20.438213694696653 11.003871992539914 11.004770304827822 0 0 0
351 1 22.00954194488628 12.57608691332524 9.432366553096719 -1 0 0
352 1 1.5722951873208795 14.147892990531718 11.004770314446993 0 0 0
353 1 3.144076097582204 12.576285966501251 9.432060139915013 0 0 0
354 1 4.717286550695913 14.14685485746682 11.004770296905782 0 0 0
355 1 6.289407628733857 12.57729638579884 9.431505377590845 0 0 0
356 1 7.8642583167120845 14.140073194311803 11.004770292873367 0 0 0
357 1 9.457267063191116 12.552728259335705 9.457268759811566 0 0 0
358 1 11.00476860983174 14.194668139424346 11.004770298056386 0 0 0
359 1 12.5522701529407 12.552728272788052 9.457268714743996 0 0 0
360 1 14.145278828680997 14.140073233755245 11.004770293356831 0 0 0
361 1 15.720129443971086 12.577296385323262 9.431505337457779 0 0 0
362 1 17.29225045324484 14.146854887719137 11.004770297907875 0 0 0
363 1 18.865460848143982 12.576285957912331 9.432060120167785 0 0 0
364 1 20.437241722075708 14.147892998961579 11.004770315019723 0 0 0
365 1 22.009541983947166 15.720004618439031 9.432661673962714 -1 0 0
366 1 1.5724190753507485 17.291977109965433 11.004770371026424 0 0 0
367 1 3.144953805926272 15.719689640002496 9.432805461598733 0 0 0
368 1 4.717353806008281 17.29132412228272 11.004770332667267 0 0 0
369 1 6.290096696068816 15.718118736231752 9.433574259313806 0 0 0
370 1 7.863196968197615 17.288252159841807 11.004770296724821 0 0 0
371 1 9.432915554193396 15.710619517181549 9.432917249327481 0 0 0
372 1 11.004768589896994 17.298504898933235 11.004770285104719 0 0 0
373 1 12.576621643129473 15.71061956076922 9.432917232097425 0 0 0
374 1 14.14634018585401 17.28825223120593 11.004770297742754 0 0 0
375 1 15.719440406720135 15.71811880167338 9.433574228263417 0 0 0
376 1 17.292183268388957 17.291324181766857 11.00477033424106 0 0 0
377 1 18.864583195267535 15.719689678576632 9.432805442301122 0 0 0
378 1 20.437117941346457 17.291977135536307 11.004770371742955 0 0 0
379 1 22.009542056681365 18.864203728705466 9.432729194939746 -1 0 0
380 1 1.5723481565618045 20.436362625240832 11.00477043958937 0 0 0
381 1 3.14477687168047 18.8639865025523 9.432805766833928 0 0 0
382 1 4.716969833621834 20.436147324941977 11.004770380544414 0 0 0
383 1 6.2894511453607205 18.863037601898775 9.433158534530454 0 0 0
384 1 7.861182274097039 20.435586736641994 11.004770311582552 0 0 0
385 1 9.4322328400445 18.862928739733494 9.432234536464705 0 0 0
386 1 11.004768592991514 20.43681595453761 11.004770287304288 0 0 0
387 1 12.57730434844901 18.862928778422603 9.432234521358902 0 0 0
388 1 14.148354895835691 20.435586776629236 11.004770313003899 0 0 0
389 1 15.720086015124561 18.863037671408094 9.433158501182886 0 0 0
390 1 17.292567325532296 20.436147374623822 11.004770382266688 0 0 0
391 1 18.864760261864404 18.863986547888455 9.432805750294225 0 0 0
392 1 20.437188987834148 20.43636264244523 11.004770440366105 0 0 0
393 1 22.00954211236592 22.008646453617764 12.576804369885904 -1 -1 0
394 1 1.57235106708089 1.5713922725667748 14.148817006655783 0 0 0
395 1 3.14465361773326 22.008642993180167 12.576755186264872 0 -1 0
396 1 4.716971182382313 1.5716455723798117 14.14859912469538 0 0 0
397 1 6.289065449610748 22.008651474016464 12.576626100140599 0 -1 0
398 1 7.860784078142317 1.5719004506717968 14.148754860020855 0 0 0
399 1 9.43260544041833 22.00864803566689 12.57693345307376 0 -1 0
400 1 11.00476863645427 1.5721666918622705 14.148336184309361 0 0 0
401 1 12.57693177295233 22.00864804819131 12.576933464586514 0 -1 0
402 1 14.14875321375882 1.5719004459801886 14.14875489599963 0 0 0
403 1 15.720471766645606 22.008651501748748 12.57662612663999 0 -1 0
404 1 17.29256613669226 1.571645564509832 14.148599166971369 0 0 0
405 1 18.8648836063443 22.00864301039954 12.576755205303243 0 -1 0
406 1 20.437186275998492 1.5713922696567575 14.14881702664074 0 0 0
407 1 22.009542106273607 3.1435468581484964 12.576808639649009 -1 0 0
408 1 1.5724580658112501 4.715761291293609 14.148835584219551 0 0 0
409 1 3.144786630820487 3.143756878765257 12.57671810463355 0 0 0
410 1 4.717367187319682 4.716381420239722 14.148471500803543 0 0 0
411 1 6.289469687020744 3.144728075015482 12.576370607824607 0 0 0
412 1 7.861928274529232 4.718591951453437 14.147610614523563 0 0 0
413 1 9.432242123978888 3.144828151478774 12.577296749156572 0 0 0
414 1 11.00476861136284 4.719524219180218 14.146337193163085 0 0 0
415 1 12.577295062540912 3.144828134806937 12.577296758372649 0 0 0
416 1 14.1476089573564 4.718591904015369 14.147610649776658 0 0 0
417 1 15.720067509582378 3.1447280381868903 12.576370627995685 0 0 0
418 1 17.292170059286867 4.7163813623209965 14.148471537894437 0 0 0
419 1 18.86475057652109 3.143756856685581 12.576718129973877 0 0 0
420 1 20.437079189329516 4.715761262818684 14.148835602665867 0 0 0
421 1 22.00954204724762 6.287752270110436 12.576873118555383 -1 0 0
422 1 1.572421509840792 7.859663477686444 14.149134320158307 0 0 0
423 1 3.144964098569783 6.2880600174636845 12.576719548791422 0 0 0
424 1 4.717910643126804 7.8600911649036505 14.148673945555975 0 0 0
425 1 6.290119705034229 6.28966504182244 12.575960570108249 0 0 0
426 1 7.8683847695591504 7.868173536050044 14.14115405782497 0 0 0
427 1 9.432903461227227 6.2971496933117646 12.576635370985938 0 0 0
428 1 11.004768588282424 7.867725323916972 14.14526001713606 0 0 0
429 1 12.576633679805978 6.29714966243158 12.576635384168505 0 0 0
430 1 14.141152395504676 7.868173462836629 14.14115410082398 0 0 0
431 1 15.719417421580122 6.289664966494689 12.57596059790149 0 0 0
432 1 17.2916264729002 7.860091084060294 14.148673988842377 0 0 0
433 1 18.864573002483915 6.288059958731981 12.576719562206472 0 0 0
434 1 20.43711558323315 7.859663448765729 14.149134342037732 0 0 0
435 1 22.00954197341248 9.431683282670129 12.57716700733669 -1 0 0
436 1 1.5727519915411012 11.003906724969836 14.148940784355027 0 0 0
437 1 3.144083434339938 9.43146687696447 12.577471023225444 0 0 0
438 1 4.720436199487425 11.003902780295116 14.147016915400675 0 0 0
439 1 6.289423393252538 9.430513310956629 12.57802782649859 0 0 0
440 1 7.882482839727343 11.003909035391649 14.127055959282094 0 0 0
441 1 9.457269477498187 9.455066078307185 12.552269373596092 0 0 0