LAMMPS data file via write_data, version 2 Aug 2023, timestep = 21, units = metal

689 atoms
3 atom types

0 22.009546999999998 xlo xhi
0 22.009546999999998 ylo yhi
0 22.009546999999998 zlo zhi

Masses

1 183.84
2 1.008
3 4.0026

Atoms # atomic

1 1 22.009346576380498 22.00755744530696 22.009543838026534 -1 -1 -1
2 1 1.5721460637451432 1.5703443315664158 1.572203731668036 0 0 0
3 1 3.144320559540863 22.00755720286861 22.009543837725012 0 -1 -1
4 1 4.71659447078126 1.5703471822078865 1.5722600427622688 0 0 0
5 1 6.288637126431012 22.00755745464387 22.00954383825565 0 -1 -1
6 1 7.860742925531941 1.5703741928907438 1.5723297372411835 0 0 0
7 1 9.432697536709703 22.007557940900046 22.009543839098384 0 -1 -1
8 1 11.00469190458306 1.5703858016321612 1.572351675810989 0 0 0
9 1 12.576651983851143 22.00755835883315 22.009543839709547 0 -1 -1
10 1 14.148606955260224 1.5703925976493431 1.572347572887971 0 0 0
11 1 15.720637988662418 22.007558401467463 22.009543839558024 0 -1 -1
12 1 17.292679024612315 1.5703708255070006 1.5722808274504612 0 0 0
13 1 18.86486775432895 22.00755800166658 22.00954383880737 0 -1 -1
14 1 20.43705831299358 1.570355534423644 1.5722144440339536 0 0 0
15 1 22.009397058720396 3.142557598856111 22.009543838569446 -1 0 -1
16 1 1.5722524918415544 4.714776715824806 1.5722698989490371 0 0 0
17 1 3.1443970250787863 3.1425579027580923 22.00954383827036 0 0 -1
18 1 4.716671387411285 4.714747308690947 1.5724229704992336 0 0 0
19 1 6.288751032592172 3.1426115374355024 22.009543838705127 0 0 -1
20 1 7.8609329473072505 4.714901285368825 1.5726386986208902 0 0 0
21 1 9.432750389351694 3.142635628513424 22.009543839559825 0 0 -1
22 1 11.004736352575554 4.714942091703567 1.57262284366358 0 0 0
23 1 12.576647735297867 3.1426488561458386 22.009543840166607 0 0 -1
24 1 14.14851710864326 4.714939659488049 1.5726555007849 0 0 0
25 1 15.720597520696078 3.142654011209972 22.009543840044465 0 0 -1
26 1 17.292731169804547 4.71479440458214 1.5724462561963783 0 0 0
27 1 18.864875938177438 3.142588344822758 22.009543839348144 0 0 -1
28 1 20.437114825751188 4.714800875637137 1.5722797269677988 0 0 0
29 1 22.009499346119945 6.28682816672806 22.009543839779315 -1 0 -1
30 1 1.572387685860689 7.858876241453161 1.5723365811517933 0 0 0
31 1 3.1445851161473337 6.2868743399121785 22.009543839404433 0 0 -1
32 1 4.716934125273473 7.858990391122719 1.572644539502757 0 0 0
33 1 6.288632787948016 6.286644716279542 22.00954383973181 0 0 -1
34 1 7.8605895618708415 7.858564336431434 1.572500990448773 0 0 0
35 1 9.432808749008057 6.286817882286882 22.009543840495866 0 0 -1
36 1 11.004791025220145 7.858785917002351 1.572735740990368 0 0 0
37 1 12.576714231062466 6.286837511980762 22.00954384110868 0 0 -1
38 1 14.148988630521083 7.858594879523967 1.572514238331415 0 0 0
39 1 15.720868426571856 6.286688444910088 22.009543841211006 0 0 -1
40 1 17.29263372250897 7.8590279781956305 1.5726599808579953 0 0 0
41 1 18.864884412017787 6.2869116780542935 22.009543840609787 0 0 -1
42 1 20.43717597951045 7.858889902555427 1.5723433945335863 0 0 0
43 1 4.029008814428351e-05 9.43082679362914 22.009543840759576 0 0 -1
44 1 1.5724391830053732 11.00278439814283 1.5723480046420768 0 0 0
45 1 3.1446918656881375 9.430842093334705 22.009543840345984 0 0 -1
46 1 4.717006504065298 11.002783975484338 1.5726221472609392 0 0 0
47 1 6.2888785455096095 9.430823329741411 22.00954384049306 0 0 -1
48 1 7.860837752601548 11.002784038651283 1.5727343099921827 0 0 0
49 1 9.432582211176111 9.430543254474868 22.00954384129197 0 0 -1
50 1 11.004815939640288 11.002784548935702 1.5714617489861764 0 0 0
51 1 12.577042061756506 9.430549327562327 22.009543841962838 0 0 -1
52 1 14.148798260843959 11.002785108672997 1.5727470475306062 0 0 0
53 1 15.720748540079553 9.430844125029486 22.009543842116113 0 0 -1
54 1 17.292642110281324 11.002785234989721 1.5726343889218826 0 0 0
55 1 18.864940227083174 9.430855576757535 22.009543841660467 0 0 -1
56 1 20.43721520682871 11.002784932350155 1.5723536681208339 0 0 0
57 1 4.059537890739867e-05 12.574742479738154 22.009543840776807 0 0 -1
58 1 1.5723883383427537 14.1466922285193 1.572336679443067 0 0 0
59 1 3.144692300931137 12.574726203022443 22.00954384034891 0 0 -1
60 1 4.716934875355891 14.146577475184088 1.5726447056938002 0 0 0
61 1 6.288878901448029 12.574744772816173 22.009543840494665 0 0 -1
62 1 7.86059010603076 14.147003617008298 1.5725011619582334 0 0 0
63 1 9.43258250852688 12.575025556757419 22.009543841304545 0 0 -1
64 1 11.004791288556886 14.146783179913363 1.5727359250718134 0 0 0
65 1 12.577042089542378 12.575020734648158 22.00954384197227 0 0 -1
66 1 14.148988782055776 14.146975156673742 1.572514401835104 0 0 0
67 1 15.72074870283863 12.574726541132343 22.009543842116983 0 0 -1
68 1 17.29263392592436 14.146542288980747 1.5726600828425177 0 0 0
69 1 18.86494034300905 12.574714712228523 22.00954384163739 0 0 -1
70 1 20.43717637166331 14.146679617144283 1.5723435453213386 0 0 0
71 1 22.009500100339924 15.718740600361157 22.009543839804177 -1 0 -1
72 1 1.5722533708887974 17.290791262288824 1.5722700768176732 0 0 0
73 1 3.1445859977397776 15.718693641544299 22.009543839416953 0 0 -1
74 1 4.716672321368694 17.29082021652648 1.5724232007759187 0 0 0
75 1 6.2886336397097775 15.718923200909881 22.009543839742136 0 0 -1
76 1 7.86093351618905 17.290666766859015 1.5726388967165923 0 0 0
77 1 9.43280913979334 15.71875094512052 22.00954384051604 0 0 -1
78 1 11.004736571085408 17.290626967961952 1.5726229490749897 0 0 0
79 1 12.576714417189821 15.71873240273282 22.009543841136615 0 0 -1
80 1 14.14851718530381 17.290630217985754 1.5726556646463132 0 0 0
81 1 15.720868541796188 15.718881933932357 22.009543841230368 0 0 -1
82 1 17.29273131714053 17.290775399953983 1.5724463453596191 0 0 0
83 1 18.864884866259096 15.718658206027794 22.009543840609997 0 0 -1
84 1 20.437115440615848 17.290768085214605 1.5722799024259964 0 0 0
85 1 22.00939777995836 18.863010639759445 22.009543838594375 -1 0 -1
86 1 1.572146479072442 20.435223281964582 1.572203783505726 0 0 0
87 1 3.144397806039337 18.86300972195207 22.009543838285637 0 0 -1
88 1 4.716594857280248 20.435220243775245 1.5722601510586622 0 0 0
89 1 6.288751631898969 18.86295626276682 22.009543838737226 0 0 -1
90 1 7.860743121575917 20.43519384892376 1.5723297938542162 0 0 0
91 1 9.43275067808646 18.862933118733515 22.009543839562376 0 0 -1
92 1 11.004691985295217 20.43518325088647 1.5723518371943526 0 0 0
93 1 12.576647775818918 18.862920848520535 22.009543840139802 0 0 -1
94 1 14.148606956454694 20.43517706540953 1.572347671546557 0 0 0
95 1 15.72059764000713 18.86291591175849 22.0095438400602 0 0 -1
96 1 17.29267914992491 20.435198566458293 1.5722809278644927 0 0 0
97 1 18.864876269142293 18.862980924183436 22.009543839367716 0 0 -1
98 1 20.437058594656914 20.43521292106316 1.572214522325487 0 0 0
99 1 22.009397943406626 22.007557444158483 3.144239897276584 -1 -1 0
100 1 1.572195477558237 1.5702972676967937 4.716362182203925 0 0 0
101 1 3.144424922878655 22.007557169504977 3.144339827143344 0 -1 0
102 1 4.7166914995598885 1.5705026597068437 4.716533689593192 0 0 0
103 1 6.288773670093132 22.00755710401479 3.1445023928547413 0 -1 0
104 1 7.860986164079691 1.5706882954352637 4.716824506054098 0 0 0
105 1 9.432761282944464 22.00755742938053 3.1445759931935515 0 -1 0
106 1 11.004740312363008 1.5706563429715568 4.716893007839207 0 0 0
107 1 12.576641491398801 22.007557846554736 3.144589473565401 0 -1 0
108 1 14.148472350386207 1.570706423455021 4.716861272177074 0 0 0
109 1 15.720578024336078 22.00755811208876 3.144543236655391 0 -1 0
110 1 17.292718878601526 1.5705266263433326 4.716576847215204 0 0 0
111 1 18.86485438736572 22.00755787573267 3.1443670230548553 0 -1 0
112 1 20.43718031963203 1.5703067851313623 4.716385866870679 0 0 0
113 1 22.009434320143768 3.142605440758435 3.1443604422242264 -1 0 0
114 1 1.5724552805994985 4.714789328558812 4.7165561959896225 0 0 0
115 1 3.144650369237529 3.1427678428825123 3.1445679491086134 0 0 0
116 1 4.717539122851048 4.715578187254364 4.717366339255119 0 0 0
117 1 6.288986324060022 3.1428753783735353 3.14478795107475 0 0 0
118 1 7.861768730929523 4.715972521380879 4.717952968494616 0 0 0
119 1 9.432857767909358 3.1428992905978776 3.1448623000963876 0 0 0
120 1 11.004753160376968 4.715808342495544 4.717842868307634 0 0 0
121 1 12.576580866273753 3.142916438806269 3.144879262188694 0 0 0
122 1 14.147732347952353 4.716008063799641 4.717985627769809 0 0 0
123 1 15.720413292082716 3.142915837603949 3.144824964203356 0 0 0
124 1 17.291940563626184 4.715626846648101 4.717410553593337 0 0 0
125 1 18.864698097748448 3.1428021795219925 3.1446003558475923 0 0 0
126 1 20.43701322961191 4.7148087665568825 4.716576382099503 0 0 0
127 1 22.009519852486786 6.286923407776552 3.144533699875683 -1 0 0
128 1 1.5727072986951678 7.8590608221333635 4.7168478237198235 0 0 0
129 1 3.1448564046457683 6.287085440190084 3.144798964659758 0 0 0
130 1 4.717998439480777 7.859799669779319 4.717963327826843 0 0 0
131 1 6.288960514439608 6.28697148926107 3.14511717515589 0 0 0
132 1 7.860880821835858 7.8588664536298305 4.71794050210815 0 0 0
133 1 9.433162596052 6.287421492498537 3.145797697671698 0 0 0
134 1 11.004778525726989 7.860316600275186 4.719882953788254 0 0 0
135 1 12.576366436810803 6.287440298211028 3.1458124952925877 0 0 0
136 1 14.148676422328428 7.858894984765347 4.71796703436433 0 0 0
137 1 15.720554008096233 6.287019359093922 3.1451482043702055 0 0 0
138 1 17.29157703096714 7.859837902680803 4.717996704021078 0 0 0
139 1 18.86464216878368 6.287122952305778 3.1448278111471817 0 0 0
140 1 20.43687964587628 7.8590753545092245 4.71686365324323 0 0 0
141 1 4.053319566844521e-05 9.430863719124261 3.144586659920795 0 0 0
142 1 1.5727006259099772 11.002784136525653 4.716900228723513 0 0 0
143 1 3.144949355400946 9.430931047075505 3.144868463593987 0 0 0
144 1 4.717848615333022 11.002783439778314 4.717842846401863 0 0 0
145 1 6.289470022674552 9.431174794683233 3.145799389101993 0 0 0
146 1 7.862350272373519 11.00278309140854 4.719881617871715 0 0 0
147 1 9.432358513637308 9.43032964507413 3.144332024212732 0 0 0
148 1 11.004783204110215 11.002783334277623 4.711257090608972 0 0 0
149 1 12.577242439435613 9.43033991874175 3.144342052327932 0 0 0
150 1 14.14723641057177 11.002783962317478 4.719909805034222 0 0 0
151 1 15.720138768712376 9.431197751049703 3.1458258582591445 0 0 0
152 1 17.29177094259775 11.002784452328335 4.717869705177024 0 0 0
153 1 18.86467326864752 9.430947380219937 3.144889919008822 0 0 0
154 1 20.43693963131207 11.002784557955598 4.716910236551261 0 0 0
155 1 4.0751466606435656e-05 12.574705313393949 3.1445868380794018 0 0 0
156 1 1.5727078874109774 14.146507212177722 4.716848141919602 0 0 0
157 1 3.1449497599192977 12.574636876054505 3.1448686040086806 0 0 0
158 1 4.717999094445628 14.145767101396611 4.717963634388547 0 0 0
159 1 6.289470400431456 12.574392419750328 3.145799502919254 0 0 0
160 1 7.860881515515186 14.146699739495622 4.717940863556177 0 0 0
161 1 9.432358803808734 12.575237938786566 3.144332171668951 0 0 0
162 1 11.004778833959067 14.1452502221301 4.719883351323966 0 0 0
163 1 12.577242554460568 12.575228811596247 3.1443421371140134 0 0 0
164 1 14.148676510166547 14.146673059842959 4.717967291488715 0 0 0
165 1 15.720138840367529 12.574371862469775 3.1458259258438046 0 0 0
166 1 17.291577083535778 14.14573103744334 4.717997000803455 0 0 0
167 1 18.864673449701158 12.574622357001743 3.144889994576992 0 0 0
168 1 20.436879856950682 14.1464935916703 4.716863914617404 0 0 0
169 1 22.009520472610355 15.71864522127659 3.1445339085839494 -1 0 0
170 1 1.5724559075971705 17.290778369319323 4.716556548188787 0 0 0
171 1 3.1448573161326645 15.718482197913888 3.1447993592692023 0 0 0
172 1 4.717539924623912 17.289988506657114 4.717366786903128 0 0 0
173 1 6.288961318363199 15.718595642860837 3.1451175421727147 0 0 0
174 1 7.861769342643192 17.28959397541557 4.71795340663913 0 0 0
175 1 9.433163097761339 15.718146130160907 3.1457980924938957 0 0 0
176 1 11.004753310909626 17.2897588546686 4.717843171977862 0 0 0
177 1 12.576366543690384 15.718128432641388 3.1458127303129135 0 0 0
178 1 14.14773233273453 17.289560224137112 4.717985907022504 0 0 0
179 1 15.720554065229729 15.718550115729064 3.1451484939915706 0 0 0
180 1 17.291940505054345 17.289941956579057 4.717410877582544 0 0 0
181 1 18.864642411483057 15.718446446101803 3.14482807802139 0 0 0
182 1 20.437013465802075 17.290759790939784 4.7165766964115114 0 0 0
183 1 22.00943481637328 18.86296265045602 3.144360702663699 -1 0 0
184 1 1.5721958377316332 20.43527019363339 4.7163623782140505 0 0 0
185 1 3.144651040243886 18.8627994452057 3.144568249772585 0 0 0
186 1 4.716691837765432 20.435064038123258 4.716533911063372 0 0 0
187 1 6.288986898723001 18.86269186368529 3.1447882373262463 0 0 0
188 1 7.860986341242577 20.43487843509382 4.716824659351479 0 0 0
189 1 9.432858010227452 18.862668604620563 3.1448625454734827 0 0 0
190 1 11.004740360729645 20.434911087500293 4.716893166720365 0 0 0
191 1 12.576580878667833 18.862652425467118 3.14487952600491 0 0 0
192 1 14.148472285583798 20.43486195216483 4.71686138690203 0 0 0
193 1 15.72041328872959 18.86265353061621 3.1448251002571497 0 0 0
194 1 17.292718906365327 20.435042022312068 4.716576973924068 0 0 0
195 1 18.864698321027465 18.862766738308498 3.144600580616812 0 0 0
196 1 20.43718035727046 20.43526140899867 4.716385993496991 0 0 0
197 1 22.009508774291024 22.007557398721975 6.288432911025374 -1 -1 0
198 1 1.5722729435018954 1.5702557268815625 7.860550604938999 0 0 0
199 1 3.144431823185607 22.0075568880576 6.288456876212037 0 -1 0
200 1 4.716669863739128 1.570403057319468 7.860616426282081 0 0 0
201 1 6.28859488381975 22.007556461375824 6.288412383919805 0 -1 0
202 1 7.860497125333336 1.5704419038056816 7.860320487421676 0 0 0
203 1 9.432864116787172 22.007556538864524 6.288735842141744 0 -1 0
204 1 11.004800672385617 1.5708954807348734 7.860731840380171 0 0 0
205 1 12.576675553963824 22.00755701756019 6.28875691887712 0 -1 0
206 1 14.149100335489134 1.5704563435239915 7.860350140647098 0 0 0
207 1 15.720923055966711 22.007557485630453 6.288452752005831 0 -1 0
208 1 17.29291889124198 1.5704192090535947 7.860650488019759 0 0 0
209 1 18.86505305668327 22.007557552152793 6.288492148665429 0 -1 0
210 1 20.437308890091266 1.5702647988429088 7.860565716073517 0 0 0
211 1 22.009524756707993 3.142481295625988 6.28848280013037 -1 0 0
212 1 1.572420468800567 4.714649313358635 7.860636274823132 0 0 0
213 1 3.144597006874114 3.142624220048197 6.288567298075256 0 0 0
214 1 4.717089301317879 4.715069832182284 7.860863803745926 0 0 0
215 1 6.289021221617372 3.1431996787366194 6.288852459740483 0 0 0
216 1 7.861071052983587 4.71611894058467 7.861093213281195 0 0 0
217 1 9.43328808537506 3.143990273163414 6.28947568507595 0 0 0
218 1 11.004780749801586 4.718932348268086 7.863106137350356 0 0 0
219 1 12.576248763419757 3.14400396188446 6.289493722797606 0 0 0
220 1 14.14850209375471 4.716144668277357 7.861116505544699 0 0 0
221 1 15.720504242969808 3.1432343086922856 6.288894889864118 0 0 0
222 1 17.29249312095974 4.715106977056416 7.860895229254319 0 0 0
223 1 18.864910422970226 3.142652685145971 6.288603887888672 0 0 0
224 1 20.437174079988836 4.714665090198514 7.860651150287282 0 0 0
225 1 1.711427741292464e-05 6.286637446641693 6.288449720035205 0 0 0
226 1 1.5724776546301176 7.8584841366709375 7.860345787644818 0 0 0
227 1 3.1452106908301114 6.287045054337293 6.288871202065967 0 0 0
228 1 4.718155065825804 7.859056697744279 7.861103320039492 0 0 0
229 1 6.291331083978321 6.289324346816658 6.291146901274881 0 0 0
230 1 7.867133647020035 7.865119163682118 7.867301522301005 0 0 0
231 1 9.435682163382616 6.291022843727888 6.292961299525334 0 0 0
232 1 11.004775434875006 7.87941912311976 7.879936263854304 0 0 0
233 1 12.573852010634958 6.291038597716014 6.29297609678793 0 0 0
234 1 14.142425210762806 7.865141505080968 7.867319595239673 0 0 0
235 1 15.718221921243748 6.289366888250946 6.2911835146882 0 0 0
236 1 17.29144933713903 7.859078687364282 7.861115831800592 0 0 0
237 1 18.864357338172702 6.287074049334439 6.288896830842215 0 0 0
238 1 20.43715183763802 7.858494766892344 7.860353817916673 0 0 0
239 1 4.702772687095016e-05 9.430888513048144 6.2887642656299585 0 0 0
240 1 1.5729413133324743 11.002783814553254 7.860743786121703 0 0 0
241 1 3.1460304761012585 9.43130748118358 6.289489220468376 0 0 0
242 1 4.720972478507965 11.002782701380715 7.863114315651472 0 0 0
243 1 6.293055886070595 9.4336889912902 6.292967756472907 0 0 0
244 1 7.881427576378159 11.002782035523103 7.879925593805252 0 0 0
245 1 9.431718292259879 9.429713435211216 6.2889248910421145 0 0 0
246 1 11.004769223467797 11.002782102325943 7.826275831169209 0 0 0
247 1 12.577826419161127 9.429722155742729 6.288943187867955 0 0 0
248 1 14.128123478202061 11.002782583091912 7.879963697793888 0 0 0
249 1 15.716520461424837 9.433709978786583 6.293001711592256 0 0 0
250 1 17.28863999689035 11.002783596767518 7.863122081369177 0 0 0
251 1 18.8635886582417 9.431319941228914 6.289508026360393 0 0 0
252 1 20.436703283981092 11.002784153650538 7.860751629940345 0 0 0
253 1 4.720877012749437e-05 12.574679915532158 6.288764387127721 0 0 0
254 1 1.5724779774259767 14.147083372360981 7.860345983938695 0 0 0
255 1 3.1460308182746934 12.574259507979988 6.289489397739875 0 0 0
256 1 4.718155717483321 14.146508970576551 7.861103609722013 0 0 0
257 1 6.2930563295722495 12.571876453590274 6.292968010096096 0 0 0
258 1 7.867134436438093 14.140444755519303 7.867301969960325 0 0 0
259 1 9.431718571368727 12.575851556842721 6.2889251029783715 0 0 0
260 1 11.004776112081428 14.126145358462628 7.879936646304323 0 0 0
261 1 12.57782669498236 12.575843703061295 6.288943183702652 0 0 0
262 1 14.142425481646422 14.140424335428067 7.867319541904924 0 0 0
263 1 15.716520479683737 12.571857460714428 6.29300192437709 0 0 0
264 1 17.291449269154594 14.14648852841921 7.861116006241735 0 0 0
265 1 18.863588728044938 12.574248498982243 6.2895082094023556 0 0 0
266 1 20.437151908693284 14.147073462872903 7.860353994162689 0 0 0
267 1 1.7396138130649443e-05 15.718930721198452 6.288450069615047 0 0 0
268 1 1.5724208237182487 17.29091802417829 7.860636548187738 0 0 0
269 1 3.1452114380148624 15.718521834259922 6.288871543900155 0 0 0
270 1 4.717090108618832 17.290495862660606 7.860864138754504 0 0 0
271 1 6.291331866035134 15.71624112050993 6.291147388828254 0 0 0
272 1 7.861071844126535 17.289445552188727 7.86109373283602 0 0 0
273 1 9.435682793811418 15.714542416808282 6.292961741040927 0 0 0
274 1 11.004781016633608 17.286632815111226 7.863106342621187 0 0 0
275 1 12.57385217191778 15.714527811923451 6.292976324882278 0 0 0
276 1 14.148502062866704 17.28942194102911 7.861116515872117 0 0 0
277 1 15.718221897469371 15.716200633281362 6.291183692464865 0 0 0
278 1 17.292492895560894 17.290460609684942 7.860895463480953 0 0 0
279 1 18.86435720698136 15.718494324884865 6.28889716499703 0 0 0
280 1 20.437174003145625 17.290902935772777 7.860651404860713 0 0 0
281 1 22.00952498883363 18.86308655092 6.288483010229159 -1 0 0
282 1 1.5722731216310573 20.435311438976502 7.860550735269282 0 0 0
283 1 3.1445975588887274 18.862942583663447 6.28856764501368 0 0 0
284 1 4.716670087466698 20.43516282753613 7.860616561182118 0 0 0
285 1 6.289021870202358 18.862366075374847 6.288852914607721 0 0 0
286 1 7.86049741334121 20.43512305729899 7.860320674695128 0 0 0
287 1 9.433288266189589 18.861575620765045 6.289476003777707 0 0 0
288 1 11.004800692865857 20.434670182997976 7.860732034370746 0 0 0
289 1 12.576248783640807 18.861562907067547 6.289494018722715 0 0 0
290 1 14.149100207574605 20.435110501481176 7.860350253153336 0 0 0
291 1 15.72050406180656 18.86233354605799 6.288895124598879 0 0 0
292 1 17.29291877729511 20.435148483344783 7.860650552707695 0 0 0
293 1 18.864910312821973 18.862915602890517 6.2886041366560725 0 0 0
294 1 20.43730885786549 20.435303109386297 7.8605657837404905 0 0 0
295 1 5.2919584055634334e-05 22.00755728601013 9.432654079442651 0 -1 0
296 1 1.5723069445761069 1.57023587007208 11.00477033780648 0 0 0
297 1 3.144490195816164 22.007556650794132 9.432655477243603 0 -1 0
298 1 4.716701451104949 1.5703258773469395 11.004770337994184 0 0 0
299 1 6.288737509168003 22.00755599261634 9.432673428512809 0 -1 0
300 1 7.860856094001758 1.5704427546699786 11.00477033894198 0 0 0
301 1 9.43252056204598 22.007555834981012 9.432298965523565 0 -1 0
302 1 11.004828881438746 1.5689806851908854 11.004770339879665 0 0 0
303 1 12.577131373606537 22.007556440971282 9.432302844670488 0 -1 0
304 1 14.148805214079596 1.5704575009360382 11.004770340278206 0 0 0
305 1 15.720916482641282 22.007556939816038 9.43269336837386 0 -1 0
306 1 17.2929688566745 1.5703436421966686 11.004770339756163 0 0 0
307 1 18.865161459762355 22.007557304722603 9.43267040263609 0 -1 0
308 1 20.437368209961797 1.570246029347767 11.004770338620567 0 0 0
309 1 4.731440531486844e-05 3.1424311173467574 9.43266852830415 0 0 0
310 1 1.5723781418591165 4.714627585339726 11.004770338856456 0 0 0
311 1 3.14459818912504 3.1425432097304213 9.432704822864634 0 0 0
312 1 4.717001753970964 4.714950725754378 11.004770338848614 0 0 0
313 1 6.288976274973072 3.1429593221308063 9.43287029895838 0 0 0
314 1 7.8620924049417775 4.71603798417855 11.004770339418094 0 0 0
315 1 9.432076485793552 3.1422257204260733 9.4318547331114 0 0 0
316 1 11.004795468604376 4.705243103377035 11.00477034004325 0 0 0
317 1 12.577541857979263 3.142236248767127 9.43186378400713 0 0 0
318 1 14.147521194782 4.716062301742049 11.00477034063387 0 0 0
319 1 15.720653667916375 3.142989776586216 9.432887796660035 0 0 0
320 1 17.29262893423793 4.714987591594061 11.004770340484521 0 0 0
321 1 18.86504027622966 3.142569938962885 9.432719337997302 0 0 0
322 1 20.43727134636486 4.714641349176933 11.004770339585493 0 0 0
323 1 4.8399687406279625e-05 6.286690272468934 9.43269174815821 0 0 0
324 1 1.5724886328541192 7.858799766147504 11.00477034020958 0 0 0
325 1 3.1450026087786354 6.286925139370837 9.432880761107068 0 0 0
326 1 4.718080301922679 7.8600493739592405 11.00477033988819 0 0 0
327 1 6.2897720420379715 6.287737325268614 9.433586913539692 0 0 0
328 1 7.86573338876568 7.863706379448166 11.0047703401414 0 0 0
329 1 9.431416199400447 6.290056105120215 9.432057954662438 0 0 0
330 1 11.004779624024112 7.807384296167296 11.004770340096837 0 0 0
331 1 12.578152410678994 6.290065358198815 9.43206577822179 0 0 0
332 1 14.143843898033387 7.86373646378727 11.00477034059086 0 0 0
333 1 15.719819499261794 6.287774929722706 9.433600554669342 0 0 0
334 1 17.291540625668212 7.8600708587637635 11.004770341058837 0 0 0
335 1 18.86462265135564 6.286953366233917 9.432888982941428 0 0 0
336 1 20.43715365409905 7.858814681414853 11.004770340874439 0 0 0
337 1 5.020047671950854e-05 9.430478155459296 9.43231070028356 0 0 0
338 1 1.5710314203628495 11.002783740783835 11.004770340853216 0 0 0
339 1 3.144275354152966 9.430048199961304 9.431865169813918 0 0 0
340 1 4.707295290793746 11.002782526011375 11.004770340593927 0 0 0
341 1 6.292094780014712 9.429410765807381 9.43206756530714 0 0 0
342 1 7.809426286400467 11.002781688872187 11.004770340823574 0 0 0
343 1 9.453050190460186 9.451030037804069 9.454275085415455 0 0 0
344 1 20.43705859510771 20.43521292101212 20.437326154730304 0 0 0
345 1 12.556529101476144 9.45102130892186 9.454260693937526 0 0 0
346 1 14.200236732122825 11.002782185914608 11.004770340294437 0 0 0
347 1 15.717519334372085 9.429414983213151 9.432065979688119 0 0 0
348 1 17.302346031618345 11.002783194472926 11.004770341190232 0 0 0
349 1 18.86536754376521 9.430055016025184 9.431867466086105 0 0 0
350 1 20.43861881370702 11.002783975898007 11.004770341331414 0 0 0
351 1 5.0339921415036576e-05 12.575089827990524 9.432310812514054 0 0 0
352 1 1.572488984436304 14.146767482297049 11.0047703402384 0 0 0
353 1 3.144275605724421 12.575518236139551 9.43186522772537 0 0 0
354 1 4.718080973487055 14.145515822124938 11.004770339901226 0 0 0
355 1 6.292094939092152 12.576153511078065 9.432067321040611 0 0 0
356 1 7.865734107814136 14.141856833222745 11.004770340092296 0 0 0
357 1 9.45305159977137 12.554533629405492 9.454275143621194 0 0 0
358 1 11.00478145537135 14.198180100029743 11.004770340088726 0 0 0
359 1 12.55653032312584 12.554542962913805 9.454260652950376 0 0 0
360 1 14.143843969869643 14.14182870627331 11.0047703405841 0 0 0
361 1 15.71751923455752 12.576150598559963 9.432066053394202 0 0 0
362 1 17.291540459348557 14.145495849158435 11.00477034108977 0 0 0
363 1 18.865367559952986 12.57551248261616 9.431867467435223 0 0 0
364 1 20.43715365987612 14.14675322783429 11.004770340881214 0 0 0
365 1 4.84615650529529e-05 15.71887755867559 9.432691763229368 0 0 0
366 1 1.5723783811507037 17.29093961827781 11.00477033889125 0 0 0
367 1 3.1450031842361947 15.718641294732052 9.432880935707146 0 0 0
368 1 4.717002444875005 17.29061458293959 11.004770338860187 0 0 0
369 1 6.289772977445502 15.717826859221029 9.433587244475712 0 0 0
370 1 7.862093264483024 17.28952564060723 11.004770339484377 0 0 0
371 1 9.431417101928846 15.715507484729889 9.432058175052942 0 0 0
372 1 11.004795996201503 17.300321476072018 11.004770340088596 0 0 0
373 1 12.578153184303087 15.71550009858812 9.432065574661959 0 0 0
374 1 14.147521432830354 17.28950361706545 11.004770340704344 0 0 0
375 1 15.719819498137024 15.717791267124756 9.433600756946856 0 0 0
376 1 17.29262851755097 17.29057933323122 11.004770340468895 0 0 0
377 1 18.86462245554159 15.718614301333414 9.432889138110452 0 0 0
378 1 20.437271165313195 17.290926439141607 11.00477033960576 0 0 0
379 1 4.739012852959902e-05 18.863136451119104 9.432668616453666 0 0 0
380 1 1.5723071551778505 20.435331083292184 11.004770337805802 0 0 0
381 1 3.1445985784571264 18.86302318610282 9.432704958390309 0 0 0
382 1 4.716701644042182 20.435239639082035 11.004770337963958 0 0 0
383 1 6.288976913659739 18.862605387900185 9.432870415678662 0 0 0
384 1 7.8608564593670005 20.43512154674591 11.004770338917794 0 0 0
385 1 9.432076828078698 18.863338618005827 9.431854864669498 0 0 0
386 1 11.004828946390093 20.436584377075846 11.004770339832676 0 0 0
387 1 12.577541924377863 18.863329449547972 9.431863780777329 0 0 0
388 1 14.148805108758882 20.43510873130737 11.004770340246514 0 0 0
389 1 15.720653367424816 18.862577003784263 9.432887839300552 0 0 0
390 1 17.292968574384044 20.43522351251384 11.004770339707 0 0 0
391 1 18.865039975016927 18.862997724884746 9.432719430758272 0 0 0
392 1 20.437368099677215 20.43532171796953 11.004770338617389 0 0 0
393 1 5.292008030401768e-05 22.0075572860084 12.5768865964563 0 -1 0
394 1 1.572272944365819 1.5702557269025128 14.148990070673818 0 0 0
395 1 3.1444901962784506 22.007556650788793 12.576885198039397 0 -1 0
396 1 4.716669864626973 1.5704030573618255 14.148924249729179 0 0 0
397 1 6.288737509661975 22.00755599262529 12.57686724809143 0 -1 0
398 1 7.8604971262350185 1.5704419039560369 14.149220190348487 0 0 0
399 1 9.432520562459503 22.00755583500122 12.577241713243398 0 -1 0
400 1 11.004800673121263 1.5708954809695979 14.148808839289591 0 0 0
401 1 12.577131374054888 22.00755644098445 12.577237835576646 0 -1 0
402 1 14.149100336160524 1.570456343839855 14.149190539731617 0 0 0
403 1 15.720916483000524 22.00755693983193 12.57684731166323 0 -1 0
404 1 17.292918891918095 1.5704192092517957 14.148890191331317 0 0 0
405 1 18.865161460171972 22.007557304709696 12.576870275434347 0 -1 0
406 1 20.437308890923283 1.5702647989115261 14.148974961057261 0 0 0
407 1 4.7314898811545124e-05 3.1424311173823765 12.576872148743375 0 0 0
408 1 1.5724204697144704 4.714649313354329 14.14890440291179 0 0 0
409 1 3.1445981896447264 3.1425432097520836 12.576835853449639 0 0 0
410 1 4.717089302241418 4.715069832201286 14.148676874028018 0 0 0
411 1 6.288976275474691 3.1429593222430094 12.576670378406003 0 0 0
412 1 7.8610710539068265 4.716118940880992 14.148447465525674 0 0 0
413 1 9.432076486288294 3.142225720744036 12.57768594599199 0 0 0
414 1 11.004780750653131 4.718932348865684 14.14643454266205 0 0 0
415 1 12.57754185833802 3.1422362492359444 12.57767689647393 0 0 0
416 1 14.14850209409986 4.716144669155936 14.14842417544965 0 0 0
417 1 15.720653668297693 3.14298977687053 12.57665288404553 0 0 0
418 1 17.29249312152688 4.715106977570516 14.148645451534756 0 0 0
419 1 18.865040276568312 3.142569939113691 12.57682134113315 0 0 0
420 1 20.437174080690248 4.7146650903242335 14.148889528985654 0 0 0
421 1 4.8400139961392686e-05 6.286690272520878 12.576848931601347 0 0 0
422 1 1.5724776552976514 7.858484136676108 14.14919489269695 0 0 0
423 1 3.145002609251767 6.286925139344819 12.57665991771095 0 0 0
424 1 4.718155066345989 7.859056697481678 14.1484373602558 0 0 0
425 1 6.289772042398309 6.287737325163425 12.57595376558691 0 0 0
426 1 7.867133647537826 7.865119163626212 14.142239158238988 0 0 0
427 1 9.43141619996917 6.2900561056644 12.57748272488964 0 0 0
428 1 11.004775435341175 7.879419123651244 14.129604417208027 0 0 0
429 1 12.578152410513063 6.290065359535373 12.577474902075108 0 0 0
430 1 14.14242521008604 7.8651415064360775 14.142221085635557 0 0 0
431 1 15.719819499248818 6.287774930135581 12.575940126888314 0 0 0
432 1 17.291449337036713 7.85907868805773 14.1484248503477 0 0 0
433 1 18.86462265164041 6.286953366378485 12.576651698431073 0 0 0
434 1 20.437151837924162 7.858494767077967 14.14918686376176 0 0 0
435 1 5.020073151571481e-05 9.430478155457145 12.577229981584606 0 0 0
436 1 1.5729413138444062 11.002783814571599 14.148796895397979 0 0 0
437 1 3.144275354257743 9.430048199923725 12.577675511105848 0 0 0
438 1 4.720972478880622 11.002782701398505 14.146426365665713 0 0 0
439 1 6.292094779330835 9.429410765449633 12.577473115976165 0 0 0
440 1 7.88142757642961 11.002782035539603 14.129615087215084 0 0 0
441 1 9.45305019086033 9.451030036660633 12.555265596232053 0 0 0