LAMMPS data file via write_data, version 2 Aug 2023, timestep = 36, units = metal

685 atoms
3 atom types

0 22.009546999999998 xlo xhi
0 22.009546999999998 ylo yhi
0 22.009546999999998 zlo zhi

Masses

1 183.84
2 1.008
3 4.0026

Atoms # atomic

126 1 18.859556146133805 9.437276171792004 6.295573837170116 0 0 0
2 1 1.5733701003237888 1.573368768309591 1.573370100323788 0 0 0
125 1 15.710104070461478 9.443575864849787 6.304939401549162 0 0 0
4 1 4.718608751537807 1.5739004538077548 1.573903991101377 0 0 0
5 1 6.29035983778008 0.0007748788648909797 0.0007795899016879558 0 0 0
6 1 7.86247995881438 1.5739040932439907 1.5739090554562671 0 0 0
124 1 12.576420621033353 9.441657173843522 6.2999444797078095 0 0 0
8 1 11.005705456634743 1.5735927972117174 1.5735967020907622 0 0 0
123 1 9.450058192078771 9.450053464312752 6.319610941739104 0 0 0
10 1 14.1489496061399 1.5731613411076788 1.5731640389636716 0 0 0
122 1 6.298338124673921 9.436606045995923 6.298338124673921 0 0 0
12 1 17.292664504533995 1.572844726789773 1.572845731285309 0 0 0
121 1 3.14910620963916 9.435112341854808 6.293369714759291 0 0 0
14 1 20.437371446494772 1.5728782629420817 1.5728782783068485 0 0 0
94 1 6.293369714759291 9.435112341854806 3.1491062096391595 0 0 0
16 1 1.5739030319200114 4.718607686260708 1.5739030319200111 0 0 0
93 1 3.1472676824117283 9.434341777788495 3.147267682411728 0 0 0
18 1 4.719773666449614 4.7197710343852455 1.5748833668006454 0 0 0
91 1 20.43608054857257 7.863831727580129 4.720549693818549 0 0 0
20 1 7.863212030811838 4.720052773035659 1.5744030896112577 0 0 0
90 1 18.864108482267252 6.2916343529700995 3.147565069996843 0 0 0
22 1 11.005747438636494 4.71966116735793 1.573713052736149 0 0 0
92 1 0.00039962323230901604 9.434295101807347 3.146974412120442 0 0 0
24 1 14.148672849958867 4.719131054672019 1.573109746220802 0 0 0
89 1 17.28916851988408 7.866181469993026 4.72336157508756 0 0 0
26 1 17.292603290330053 4.718547863952503 1.5728920379086313 0 0 0
107 1 3.1476723245216505 3.14766765250743 6.291566526027247 0 0 0
28 1 20.437478518454004 4.718328465667685 1.5736945595399023 0 0 0
29 1 0.0007775846044170448 6.290359278074851 0.0007775846044167236 0 0 0
30 1 1.5739079607553064 7.8624782003180975 1.5739079607553073 0 0 0
106 1 0.0007984886032843055 3.146924799723879 6.290984774562893 0 0 0
32 1 4.720056773958013 7.8632092448863125 1.5744025874657939 0 0 0
108 1 6.294038251803692 3.1504791322017467 6.294038251803691 0 0 0
34 1 7.864776832993742 7.864772751656034 1.575860806468765 0 0 0
109 1 9.435116702865331 3.1491011082777374 6.293369924489713 0 0 0
36 1 11.006205097582631 7.864461993865699 1.5743687827092112 0 0 0
110 1 12.576876974694652 3.147558281724616 6.2923860897681445 0 0 0
38 1 14.148282185664089 7.863867226826591 1.5733961744027334 0 0 0
111 1 15.720476822618684 3.1463715280465383 6.291431256616327 0 0 0
40 1 17.2917345482034 7.8634253129775935 1.5747097939514016 0 0 0
112 1 18.86410946623894 3.1475627664120838 6.291634944247209 0 0 0
42 1 20.43712455717313 7.862614421259661 1.5740883653003879 0 0 0
113 1 0.0010596171615161137 6.292190834175551 6.29219381158439 0 0 0
99 1 0.0007795899016884494 0.0007748788648901661 6.290359837780079 0 0 0
98 1 18.8633764297727 9.435009087715528 3.1481707577879083 0 0 0
97 1 15.718477972901946 9.436413101367222 3.150584540641364 0 0 0
96 1 12.577136336890467 9.436576537121804 3.150126798107345 0 0 0
48 1 15.719525040336 9.43505842906909 0.0006125143879117071 0 0 0
95 1 9.437189234997764 9.4371849577468 3.153145344503302 0 0 0
120 1 22.009342705039707 9.43507381482952 6.292581198676601 -1 0 0
51 1 1.573903991101378 1.5739004538077543 4.718608751537807 0 0 0
119 1 18.86323537762463 6.293249742857199 6.293251859860494 0 0 0
53 1 4.719774456192209 1.574879156754388 4.719774456192208 0 0 0
118 1 15.721756976486823 6.29118254482671 6.2911852295237285 0 0 0
55 1 7.863212759929625 1.574397902501693 4.720057549554156 0 0 0
117 1 12.575601915897337 6.295337923311854 6.29534210776781 0 0 0
57 1 11.005748405539128 1.5737083259619096 4.719665266262996 0 0 0
116 1 9.436610751782446 6.2983334902976305 6.298338357292115 0 0 0
59 1 14.148674097133814 1.5731065962358264 4.71913347648547 0 0 0
115 1 6.300259466504559 6.300254844062859 6.300259466504559 0 0 0
61 1 17.292604915049758 1.5728902313357425 4.7185484484796545 0 0 0
114 1 3.1504838280490706 6.294033890905333 6.2940377684481925 0 0 0
63 1 20.437479957162637 1.5736928146604119 4.718328460634364 0 0 0
64 1 0.0010866882989122486 3.1462589033791937 3.1462597384464837 0 0 0
65 1 1.5748833668006452 4.7197710343852455 4.719773666449615 0 0 0
66 1 3.1470496127381318 3.147046789436176 3.1470496127381318 0 0 0
67 1 4.7218459421895105 4.721841898287624 4.72184594218951 0 0 0
68 1 6.291566526027248 3.14766765250743 3.1476723245216505 0 0 0
69 1 7.864550835362926 4.722303158756489 4.722308231173444 0 0 0
70 1 9.434344864294681 3.147263345787337 3.147268267693163 0 0 0
71 1 11.005736718840815 4.721061900794488 4.721066542366627 0 0 0
72 1 12.5771523957726 3.146629186806941 3.146632958985309 0 0 0
73 1 14.148286523290539 4.719937080667569 4.719940203900418 0 0 0
74 1 15.720637116345692 3.1461095912481443 3.1461115381894222 0 0 0
75 1 17.29285729259011 4.718938867593915 4.7189404026250745 0 0 0
76 1 18.86512767886305 3.1459176624319887 3.1459180964634945 0 0 0
77 1 20.437551381743706 4.7193478215967355 4.719349347986159 0 0 0
78 1 0.0007976274049636407 6.290983610465101 3.1469277472757256 0 0 0
79 1 1.5744025874657934 7.8632092448863125 4.720056773958013 0 0 0
80 1 3.1476716018965396 6.291563637604993 3.14767160189654 0 0 0
81 1 4.722307682406617 7.8645469757237105 4.722307682406617 0 0 0
82 1 6.2940377684481925 6.294033890905333 3.150483828049071 0 0 0
83 1 7.870264673158786 7.870260351517324 4.7303611639655285 0 0 0
84 1 9.435116103558387 6.293365247315109 3.1491063121438043 0 0 0
85 1 11.00628647631896 7.866971472761349 4.725096270439377 0 0 0
86 1 12.576876142388185 6.29238293145661 3.1475627151211705 0 0 0
87 1 14.148220847925042 7.86474892923299 4.720643741784478 0 0 0
88 1 15.720475512028033 6.291429725681479 3.1463744900250035 0 0 0
105 1 18.86466711765592 0.0008291823248195106 6.2905550618135475 0 0 0
101 1 6.2921948600002215 0.0010550330241401427 6.292194860000221 0 0 0
100 1 3.1469290196258157 0.0007935944632844995 6.290985772900224 0 0 0
56 1 9.434298084383608 0.00039544825127917906 3.1469750650883372 0 0 0
54 1 6.290985772900225 0.000793594463284444 3.1469290196258157 0 0 0
52 1 3.1462609340220893 0.0010833660303377368 3.1462609340220893 0 0 0
50 1 0.0005284168142328611 0.0005256887003898951 3.1455646229509227 0 0 0
49 1 18.86425178662668 9.434513463925065 0.0007792985592382047 0 0 0
9 1 12.577362614714088 0.00026270791564955747 0.0002660639757626188 0 0 0
7 1 9.434127717393082 0.000654042880393846 0.0006586643408677819 0 0 0
3 1 3.1455646229509227 0.0005256887003898395 0.0005284168142327003 0 0 0
44 1 3.1469744121204424 9.434295101807347 0.000399623232308826 0 0 0
43 1 0.0006574822798530298 9.434126377843258 0.0006574822798529979 0 0 0
41 1 18.864664807953687 6.2905546668099905 0.0008313638683603384 0 0 0
15 1 0.00052693629165702 3.1455646774942023 0.0005269362916598944 0 0 0
33 1 6.29219381158439 6.29219083417555 0.0010596171615133336 0 0 0
31 1 3.1469277472757256 6.290983610465102 0.0007976274049637643 0 0 0
17 1 3.146259738446485 3.146258903379194 0.0010866882989122508 0 0 0
19 1 6.290984774562894 3.146924799723878 0.0007984886032843294 0 0 0
21 1 9.434296890344218 3.1469706214906057 0.00040026760229618693 0 0 0
127 1 1.5739090554562674 1.573904093243991 7.862479958814381 0 0 0
128 1 4.720057549554156 1.5743979025016925 7.863212759929625 0 0 0
129 1 7.864777480128809 1.575855811666428 7.864777480128809 0 0 0
130 1 11.006206166568798 1.574364099610287 7.8644661129008675 0 0 0
131 1 14.148283655554833 1.5733925051938602 7.8638694868023515 0 0 0
132 1 17.29173610799944 1.5747066809441062 7.863426267605001 0 0 0
133 1 20.437126077995664 1.574085330016804 7.862615004385058 0 0 0
134 1 1.574403089611257 4.7200527730356585 7.863212030811839 0 0 0
135 1 4.722308231173443 4.722303158756489 7.864550835362926 0 0 0
136 1 7.870265044823157 4.730356198781921 7.870265044823157 0 0 0
137 1 11.006287037925217 4.725091183433421 7.866975687297204 0 0 0
138 1 14.148221553876882 4.7206396687107555 7.864751535628795 0 0 0
139 1 17.289169299437113 4.723358180022373 7.866182760840722 0 0 0
140 1 20.436081008503844 4.720546283370079 7.863833275348725 0 0 0
141 1 1.5758608064687647 7.864772751656033 7.864776832993743 0 0 0
142 1 4.7303611639655285 7.870260351517323 7.870264673158787 0 0 0
143 1 7.8916785081832055 7.891673739890696 7.891678508183206 0 0 0
144 1 11.002786053530702 7.874747280637024 7.874751972952028 0 0 0
145 1 14.155291313946938 7.858164245198564 7.858167919277684 0 0 0
146 1 17.286080645245892 7.8696188763889525 7.8696217154629124 0 0 0
147 1 20.434656996397106 7.865157605740538 7.865160617955101 0 0 0
245 1 18.85185899668692 9.43822992756433 12.574934941264836 0 0 0
149 1 1.5735967020907609 1.5735927972117183 11.005705456634743 0 0 0
244 1 15.665305937936754 9.465476470817137 12.563421103777726 0 0 0
151 1 4.719665266262995 1.5737083259619093 11.005748405539126 0 0 0
243 1 12.5275236754942 9.520427866598522 12.5275236754942 0 0 0
153 1 7.8644661129008675 1.5743640996102874 11.0062061665688 0 0 0
242 1 9.399914205248338 9.39990973341399 12.600119274235226 0 0 0
155 1 11.006535115497725 1.5752542326829126 11.006535115497725 0 0 0
241 1 6.2999444797078095 9.441657173843522 12.576420621033353 0 0 0
157 1 14.147779566735158 1.5758208921503836 11.006546724262146 0 0 0
158 1 15.719526362333124 0.0006089509607768885 9.43505988389107 0 0 0
159 1 17.291254810096117 1.5748231797055894 11.006236787852794 0 0 0
240 1 3.150126798107344 9.436576537121804 12.577136336890465 0 0 0
161 1 20.436797657232415 1.5739231282790784 11.005857933622902 0 0 0
162 1 0.00040026760229598283 3.146970621490605 9.434296890344216 0 0 0
163 1 1.5737130527361483 4.7196611673579305 11.005747438636494 0 0 0
164 1 3.1472682676931636 3.1472633457873367 9.434344864294683 0 0 0
165 1 4.721066542366626 4.721061900794488 11.005736718840815 0 0 0
166 1 6.2933699244897126 3.1491011082777374 9.435116702865331 0 0 0
167 1 7.866975687297204 4.725091183433421 11.006287037925217 0 0 0
168 1 9.437189552304684 3.153140087672705 9.437189552304684 0 0 0
169 1 11.007906827597067 4.733499168230581 11.007906827597067 0 0 0
170 1 12.577137041772906 3.150121839658497 9.436579763895953 0 0 0
171 1 14.145250347704822 4.731737155472129 11.008468196853705 0 0 0
172 1 15.71847910751433 3.1505803148839067 9.436414628272516 0 0 0
173 1 17.28853344702675 4.72419727620394 11.006878042903924 0 0 0
174 1 18.863377343347192 3.1481670085890374 9.435010121813184 0 0 0
175 1 20.43562240019103 4.720439873910256 11.006058886997025 0 0 0
176 1 22.009342762531436 6.292577155974598 9.435076664653309 -1 0 0
177 1 1.5743687827092114 7.864461993865698 11.006205097582631 0 0 0
178 1 3.1491063121438034 6.29336524731511 9.43511610355839 0 0 0
179 1 4.725096270439377 7.866971472761348 11.00628647631896 0 0 0
180 1 6.298338357292115 6.298333490297631 9.436610751782446 0 0 0
181 1 7.87475197295203 7.874747280637024 11.002786053530702 0 0 0
182 1 9.450058328962331 6.319605639760486 9.450058328962331 0 0 0
183 1 11.024502138421363 7.932023601344079 11.024502138421365 0 0 0
184 1 12.576420869951665 6.299939675363868 9.441661070792986 0 0 0
185 1 14.117982320649608 7.918172720996102 11.019997764247133 0 0 0
186 1 15.71010416109536 6.304934921691756 9.443578085932819 0 0 0
187 1 17.277283754722568 7.8744476868930535 11.010213395993913 0 0 0
188 1 18.859556449449048 6.29557003180995 9.437278088445908 0 0 0
189 1 20.43258282032971 7.865485880163686 11.006544557575463 0 0 0
190 1 22.008593924951814 9.435944359351423 9.435948263940785 -1 0 0
191 1 3.153145344503302 9.437184957746798 9.437189234997765 0 0 0
192 1 6.319610941739105 9.45005346431275 9.450058192078773 0 0 0
193 1 9.519437150192664 9.519432740857088 9.519437150192664 0 0 0
194 1 12.600119274235226 9.39990973341399 9.399914205248336 0 0 0
195 1 15.696254261423196 9.45382614719838 9.453830130231621 0 0 0
196 1 18.85455140347748 9.439030915954845 9.439034550051776 0 0 0
239 1 22.007808274408994 9.435654391629093 12.576847992135528 -1 0 0
198 1 1.5731640389636714 1.5731613411076786 14.148949606139897 0 0 0
238 1 20.43297335981923 7.864968738000686 14.146937739156812 0 0 0
200 1 4.71913347648547 1.5731065962358273 14.148674097133815 0 0 0
237 1 18.859348746097513 6.2949861990607 12.576435123278785 0 0 0
202 1 7.863869486802351 1.57339250519386 14.148283655554833 0 0 0
236 1 17.27857705394897 7.873401351584275 14.139807156140243 0 0 0
204 1 11.006546724262146 1.5758208921503845 14.147779566735156 0 0 0
209 1 18.863740294421397 0.0002011241347404136 12.57740608497966 0 0 0
206 1 14.147424196317997 1.5750131107178031 14.147424196317997 0 0 0
544 1 14.183504951308217 10.983287385085296 14.183504951308219 0 0 0
208 1 17.290783415646946 1.574154136587645 14.148140545229921 0 0 0
235 1 15.70905468306102 6.3062806742499875 12.57317003091121 0 0 0
210 1 20.436390912613284 1.573451009094445 14.148792984143332 0 0 0
211 1 22.00951680296773 3.1466272055196 12.577257708647707 -1 0 0
212 1 1.5731097462208 4.71913105467202 14.148672849958867 0 0 0
213 1 3.1466329589853075 3.1466291868069405 12.5771523957726 0 0 0
214 1 4.719940203900417 4.719937080667569 14.148286523290539 0 0 0
215 1 6.2923860897681445 3.1475582817246157 12.57687697469465 0 0 0
216 1 7.864751535628794 4.720639668710755 14.148221553876882 0 0 0
217 1 9.436579763895953 3.1501218396584973 12.577137041772906 0 0 0
218 1 11.008468196853705 4.731737155472129 14.145250347704822 0 0 0
219 1 12.576289238336578 3.154186011702821 12.57628923833658 0 0 0
220 1 14.144385180037116 4.729053320654171 14.144385180037116 0 0 0
221 1 15.717963601260408 3.1510141572610846 12.576790313247086 0 0 0
222 1 17.287865871810844 4.723982835904614 14.146024979246206 0 0 0
223 1 18.863010475054633 3.147882089622366 12.577151175232512 0 0 0
224 1 20.435272195769844 4.720060818301428 14.148192651866959 0 0 0
225 1 22.00871503199104 6.292180685879033 12.577016170643892 -1 0 0
226 1 1.5733961744027327 7.863867226826591 14.148282185664089 0 0 0
227 1 3.1475627151211696 6.29238293145661 12.576876142388185 0 0 0
228 1 4.720643741784477 7.86474892923299 14.14822084792504 0 0 0
229 1 6.29534210776781 6.295337923311853 12.575601915897337 0 0 0
230 1 7.858167919277684 7.858164245198565 14.155291313946938 0 0 0
231 1 9.441661070792986 6.299939675363867 12.576420869951665 0 0 0
232 1 11.019997764247133 7.918172720996102 14.117982320649608 0 0 0
233 1 12.571235419850549 6.321028525617504 12.571235419850549 0 0 0
234 1 14.129624575121493 7.887235876051126 14.129624575121493 0 0 0
465 1 7.87475154048875 11.002781669022232 7.87475154048875 0 0 0
148 1 0.0006586643408681003 0.000654042880393825 9.434127717393082 0 0 0
150 1 3.1469750650883372 0.00039544825127638887 9.434298084383608 0 0 0
160 1 18.86425329018377 0.0007758288839732834 9.434514347689026 0 0 0
197 1 0.00026606397576258204 0.00026270791565496986 12.57736261471409 0 0 0
343 1 18.863476531781004 9.43499555078242 18.863476531781007 0 0 0
247 1 1.5728457312853086 1.5728447267897723 17.292664504533995 0 0 0
342 1 15.7186512584214 9.435188953183069 18.862854638664572 0 0 0
249 1 4.718548448479655 1.5728902313357427 17.292604915049758 0 0 0
341 1 12.574934941264837 9.43822992756433 18.85185899668692 0 0 0
251 1 7.863426267605001 1.5747066809441068 17.29173610799944 0 0 0
252 1 9.435059883891071 0.0006089509607772478 15.719526362333122 0 0 0
253 1 11.006236787852794 1.5748231797055896 17.291254810096113 0 0 0
303 1 12.577406084979662 0.00020112413474121787 18.863740294421397 0 0 0
255 1 14.148140545229921 1.5741541365876446 17.290783415646942 0 0 0
46 1 9.435948263940785 9.43594435935142 22.008593924951814 0 0 -1
257 1 17.290978799864636 1.5727399827542052 17.290978799864636 0 0 0
340 1 9.439034550051776 9.439030915954845 18.85455140347748 0 0 0
259 1 20.436221471002344 1.5728696569197782 17.29203658520117 0 0 0
260 1 22.00921996467681 3.14618737785975 15.720476550372094 -1 0 0
261 1 1.5728920379086317 4.718547863952504 17.292603290330053 0 0 0
262 1 3.1461115381894222 3.1461095912481447 15.720637116345692 0 0 0
263 1 4.7189404026250745 4.7189388675939155 17.29285729259011 0 0 0
264 1 6.291431256616326 3.1463715280465374 15.720476822618684 0 0 0
265 1 7.866182760840723 4.723358180022374 17.289169299437113 0 0 0
266 1 9.436414628272516 3.1505803148839076 15.71847910751433 0 0 0
267 1 11.006878042903924 4.724197276203941 17.28853344702675 0 0 0
268 1 12.576790313247084 3.1510141572610832 15.717963601260408 0 0 0
269 1 14.146024979246206 4.723982835904615 17.287865871810844 0 0 0
270 1 15.718155440216405 3.148869096928038 15.718155440216405 0 0 0
271 1 17.290037204556246 4.720177863282817 17.290037204556246 0 0 0
272 1 18.86275810697908 3.1473222543706236 15.719333849117993 0 0 0
273 1 20.43570219803115 4.719169800862669 17.291522429207337 0 0 0
274 1 22.00872377544864 6.291601665291107 15.719820727622851 -1 0 0
275 1 1.5747097939514014 7.863425312977594 17.2917345482034 0 0 0
276 1 3.146374490025002 6.291429725681478 15.720475512028031 0 0 0
277 1 4.723361575087561 7.866181469993026 17.289168519884083 0 0 0
278 1 6.2911852295237285 6.291182544826711 15.721756976486823 0 0 0
279 1 7.8696217154629124 7.8696188763889525 17.286080645245892 0 0 0
280 1 9.443578085932819 6.304934921691757 15.71010416109536 0 0 0
281 1 11.010213395993913 7.8744476868930535 17.277283754722568 0 0 0
282 1 12.573170030911209 6.306280674249987 15.709054683061021 0 0 0
283 1 14.139807156140241 7.873401351584275 17.27857705394897 0 0 0
284 1 15.713794320775326 6.2974501330872785 15.713794320775328 0 0 0
285 1 17.292223696098116 7.861671823881791 17.292223696098116 0 0 0
286 1 18.86006289584271 6.294274193665606 15.717125001143824 0 0 0
287 1 20.437054145634335 7.862825894439462 17.291904296090145 0 0 0
288 1 0.0006125143879120967 9.43505842906909 15.719525040336 0 0 0
289 1 3.1505845406413635 9.436413101367222 15.718477972901944 0 0 0
290 1 6.304939401549162 9.443575864849787 15.710104070461478 0 0 0
291 1 9.453830130231621 9.45382614719838 15.696254261423194 0 0 0
292 1 12.563421103777726 9.465476470817137 15.665305937936756 0 0 0
293 1 15.725264443330833 9.428166873752811 15.72526444333083 0 0 0
294 1 18.862854638664572 9.435188953183069 15.718651258421401 0 0 0
339 1 6.2955738371701155 9.437276171792004 18.859556146133805 0 0 0
296 1 1.572878278306848 1.5728782629420817 20.437371446494776 0 0 0
338 1 3.1481707577879083 9.435009087715528 18.8633764297727 0 0 0
298 1 4.718328460634364 1.5736928146604137 20.437479957162637 0 0 0
337 1 0.0007792985592352709 9.434513463925063 18.86425178662668 0 0 0
300 1 7.862615004385057 1.5740853300168045 20.437126077995664 0 0 0
336 1 20.437204370818186 7.8625181916470765 20.437204370818186 0 0 0
302 1 11.005857933622902 1.573923128279077 20.436797657232415 0 0 0
335 1 18.86435004648568 6.290412796268975 18.86435004648568 0 0 0
304 1 14.148792984143332 1.5734510090944445 20.43639091261328 0 0 0
334 1 17.29190429609014 7.86282589443946 20.437054145634338 0 0 0
306 1 17.292036585201174 1.5728696569197775 20.436221471002348 0 0 0
45 1 6.292581198676602 9.43507381482952 22.009342705039707 0 0 -1
308 1 20.43669596378518 1.572375437654894 20.43669596378518 0 0 0
309 1 22.009398462294058 3.145617751916023 18.864695416218183 -1 0 0
310 1 1.573694559539903 4.718328465667686 20.437478518454004 0 0 0
311 1 3.145918096463494 3.1459176624319882 18.86512767886305 0 0 0
312 1 4.719349347986159 4.7193478215967355 20.437551381743706 0 0 0
313 1 6.291634944247209 3.1475627664120847 18.86410946623894 0 0 0
314 1 7.863833275348723 4.720546283370077 20.436081008503844 0 0 0
315 1 9.435010121813184 3.148167008589037 18.863377343347196 0 0 0
316 1 11.006058886997026 4.720439873910256 20.435622400191033 0 0 0
317 1 12.577151175232514 3.1478820896223656 18.863010475054633 0 0 0
318 1 14.148192651866957 4.7200608183014285 20.435272195769844 0 0 0
319 1 15.719333849117993 3.147322254370625 18.86275810697908 0 0 0
320 1 17.291522429207337 4.719169800862669 20.43570219803115 0 0 0
321 1 18.863777583248716 3.1456681164175624 18.863777583248716 0 0 0
322 1 20.437204672330942 4.7179728675882115 20.437204672330946 0 0 0
323 1 0.0008313638683601698 6.29055466680999 18.864664807953687 0 0 0
324 1 1.574088365300388 7.862614421259661 20.43712455717313 0 0 0
325 1 3.147565069996843 6.2916343529700995 18.864108482267252 0 0 0
326 1 4.7205496938185485 7.863831727580129 20.43608054857257 0 0 0
327 1 6.293251859860493 6.293249742857199 18.86323537762463 0 0 0
328 1 7.865160617955101 7.865157605740539 20.434656996397106 0 0 0
329 1 9.437278088445906 6.295570031809951 18.859556449449048 0 0 0
330 1 11.006544557575461 7.865485880163687 20.43258282032971 0 0 0
331 1 12.576435123278785 6.294986199060699 18.859348746097517 0 0 0
332 1 14.14693773915681 7.864968738000686 20.432973359819233 0 0 0
333 1 15.717125001143824 6.294274193665605 18.860062895842713 0 0 0
301 1 9.434514347689023 0.0007758288839761271 18.864253290183765 0 0 0
299 1 6.290555061813548 0.00082918232481966 18.86466711765592 0 0 0
47 1 12.576847992135528 9.435654391629093 22.007808274408994 0 0 -1
37 1 12.57701617064389 6.292180685879034 22.008715031991045 0 0 -1
35 1 9.435076664653309 6.292577155974597 22.009342762531436 0 0 -1
39 1 15.719820727622853 6.291601665291106 22.008723775448644 0 0 -1
27 1 18.864695416218183 3.145617751916023 22.009398462294058 0 0 -1
25 1 15.720476550372092 3.14618737785975 22.00921996467681 0 0 -1
23 1 12.577257708647707 3.1466272055196 22.00951680296773 0 0 -1
462 1 18.86435249215483 18.86434811148981 6.290413777123459 0 0 0
461 1 15.717127221729719 18.86006022237501 6.294276197794269 0 0 0
346 1 7.864466396132323 11.006201351761364 1.5743690758291464 0 0 0
460 1 12.576437347602528 18.859345048651267 6.294989527948583 0 0 0
459 1 9.437279935562684 18.85955201855269 6.29557416159801 0 0 0
349 1 17.29125423546525 11.006235501212405 1.5748271642275118 0 0 0
458 1 6.293253316195062 18.863230940789666 6.293253316195061 0 0 0
387 1 12.577407225886777 18.86373648553281 0.00020462989026811726 0 0 0
352 1 1.573164832359932 14.14894675553225 1.5731648323599328 0 0 0
104 1 15.719822866769817 22.008721121713005 6.291602887272794 0 -1 0
354 1 4.719134707259136 14.148669660541408 1.5731108621904886 0 0 0
103 1 12.577017910282192 22.008711116437777 6.29218364708908 0 -1 0
356 1 7.863871025257557 14.148278366393566 1.5733970950144607 0 0 0
102 1 9.43507808372649 22.009337872161776 6.292581625020369 0 -1 0
358 1 11.006548021642894 14.147775031659476 1.5758255818246132 0 0 0
344 1 1.5735966663608232 11.00570319088848 1.5735966663608225 0 0 0
360 1 14.147425259840016 14.14742146913816 1.5750172132096234 0 0 0
347 1 11.006535068861252 11.00653077823912 1.5752591470960888 0 0 0
362 1 17.290784434901603 14.148138988183039 1.5741575690876017 0 0 0
395 1 7.866975962233699 11.00628237532204 4.725096079763385 0 0 0
364 1 20.436391686391385 14.148791263688864 1.5734542102747078 0 0 0
363 1 18.863740215118966 12.57740482791953 0.0002045110241648598 0 0 0
366 1 1.5728471523154408 17.292661635704377 1.5728471523154395 0 0 0
62 1 18.864697074633067 22.00939781505174 3.145617664161317 0 -1 0
368 1 4.718550194822705 17.29260014297348 1.57289373425814 0 0 0
60 1 15.720477941673828 22.00921801028703 3.1461886832376895 0 -1 0
370 1 7.863428127522847 17.291730908783137 1.5747112622544013 0 0 0
371 1 9.4350614789833 15.7195212534557 0.0006134835888569162 0 0 0
372 1 11.00623851466072 17.291250050327488 1.5748274089908914 0 0 0
348 1 14.147779127251592 11.006544258548143 1.5758252175062089 0 0 0
374 1 14.148142305091904 17.290780663224005 1.5741571998552044 0 0 0
453 1 12.573171551466038 15.709051713588089 6.306285117734314 0 0 0
376 1 17.290980599481042 17.29097730336494 1.5727420931169496 0 0 0
58 1 12.577258776545733 22.009513048899368 3.1466301565039547 0 -1 0
378 1 20.43622308690363 17.29203522059154 1.5728716130846665 0 0 0
452 1 9.443579755761958 15.71010038772093 6.304939502627823 0 0 0
380 1 1.572879534505351 20.437369154859944 1.5728795345053506 0 0 0
345 1 4.719665325685292 11.005744299737637 1.5737129351168966 0 0 0
382 1 4.718329511023611 20.43747559551163 1.5736961579946749 0 0 0
350 1 20.436797362952973 11.005856712626583 1.5739265534472706 0 0 0
384 1 7.862616164366364 20.437120919593315 1.5740897861702716 0 0 0
393 1 1.5737129351168961 11.005744299737637 4.719665325685293 0 0 0
386 1 11.005859203019908 20.436793458526783 1.573926962524521 0 0 0
456 1 0.0008333429413679734 18.864661997077526 6.290556042555905 0 0 0
388 1 14.14879417898835 20.436388137221357 1.5734534791598715 0 0 0
455 1 18.86006436739233 15.71712258047839 6.294277017040341 0 0 0
390 1 17.29203816076408 20.43622043240747 1.57287052439547 0 0 0
451 1 6.291186191413868 15.721752688004509 6.291186191413868 0 0 0
392 1 20.436697431792215 20.43669522123074 1.5723757883751592 0 0 0
457 1 3.1475666831442433 18.86410459618939 6.2916368179248625 0 0 0
394 1 4.721066658899008 11.005732767409489 4.721066658899008 0 0 0
454 1 15.713796549879172 15.71379235617735 6.29745351422383 0 0 0
396 1 11.007906878077636 11.007902529977281 4.733504461757854 0 0 0
397 1 14.145250373299493 11.008465726362477 4.73174218572029 0 0 0
398 1 17.28853320661842 11.006876393537103 4.724201560313129 0 0 0
399 1 20.435622361492264 11.00605701556518 4.720443898980645 0 0 0
400 1 22.00951721049658 12.577255455151937 3.1466308711978765 -1 0 0
401 1 1.5731108621904892 14.148669660541408 4.719134707259136 0 0 0
402 1 3.1466332949078293 12.577148665762703 3.1466332949078297 0 0 0
403 1 4.719941270425907 14.148281920310772 4.719941270425907 0 0 0
404 1 6.292387009506154 12.576872336793175 3.147563203693116 0 0 0
405 1 7.864753007822191 14.14821675385669 4.720644298076564 0 0 0
406 1 9.436580752599282 12.577132122868688 3.150126969847516 0 0 0
407 1 11.008469894316564 14.14524628549049 4.7317421999890925 0 0 0
408 1 12.576289960510906 12.576285737545838 3.154190957936076 0 0 0
409 1 14.144386801938705 14.14438270432234 4.729057342984274 0 0 0
410 1 15.71796375987344 12.576788349182506 3.1510186291292506 0 0 0
411 1 17.287867138283186 14.14602324968217 4.723986509950766 0 0 0
412 1 18.863010665717905 12.577149535661965 3.147886034952413 0 0 0
413 1 20.435273404504017 14.148190415584395 4.720064234020463 0 0 0
414 1 22.00922149022373 15.720474207584125 3.146190126749072 -1 0 0
415 1 1.5728937342581406 17.29260014297348 4.718550194822705 0 0 0
416 1 3.1461130812150158 15.72063328535088 3.1461130812150153 0 0 0
417 1 4.718942290248634 17.292852783527774 4.718942290248633 0 0 0
418 1 6.291433127496491 15.720471723020644 3.1463757648803545 0 0 0
419 1 7.866184826741188 17.28916426649826 4.723362551936652 0 0 0
420 1 9.436416546295781 15.718473998642997 3.150585124163496 0 0 0
421 1 11.006880199696575 17.28852912528969 4.7242013977888275 0 0 0
422 1 12.576792185209126 15.717959796032858 3.151018467237579 0 0 0
423 1 14.146027143056688 17.287863038415534 4.723985836201427 0 0 0
424 1 15.718157122165936 15.718153417651068 3.148872324396703 0 0 0
425 1 17.29003935744264 17.290035498693058 4.720179847215333 0 0 0
426 1 18.862759806309903 15.719332264492245 3.1473248891156134 0 0 0
427 1 20.435704242085798 17.29152042325074 4.719171687389461 0 0 0
428 1 22.00940051218303 18.864693550857922 3.1456188328126644 -1 0 0
429 1 1.573696157994676 20.43747559551163 4.718329511023612 0 0 0
430 1 3.1459200479491334 18.86512389827152 3.145920047949132 0 0 0
431 1 4.719350906012572 20.437547077427773 4.719350906012572 0 0 0
432 1 6.2916368179248625 18.86410459618939 3.1475666831442424 0 0 0
433 1 7.8638349873355065 20.4360760067434 4.72055054388409 0 0 0
434 1 9.43501200412207 18.863372422789602 3.1481713594104463 0 0 0
435 1 11.006060839275902 20.435617893342222 4.720443825092627 0 0 0
436 1 12.577152993624805 18.863006598925477 3.1478857154946445 0 0 0
437 1 14.148194738090275 20.435269417984255 4.720062915896505 0 0 0
438 1 15.719335970819166 18.86275634098282 3.1473239655806253 0 0 0
439 1 17.291524738977493 20.435700631309796 4.719170610515544 0 0 0
440 1 18.863779774298017 18.863776527849723 3.145668890783445 0 0 0
441 1 20.437206878984338 20.437203079821504 4.71797292779216 0 0 0
442 1 22.00871572724135 12.577013061744553 6.292184580066942 -1 0 0
443 1 3.1475632036931165 12.576872336793175 6.292387009506152 0 0 0
444 1 6.295342725795703 12.575597706033024 6.295342725795703 0 0 0
445 1 9.441661418610783 12.57641641642252 6.299944350443999 0 0 0
446 1 12.571236191879816 12.571232484474145 6.32103381906993 0 0 0
447 1 15.709055569056153 12.57316761137116 6.306285375876251 0 0 0
448 1 18.85934919026406 12.576432885271378 6.294990323710818 0 0 0
449 1 22.008725202491117 15.719817735602257 6.291604572194152 -1 0 0
450 1 3.1463757648803545 15.720471723020644 6.291433127496491 0 0 0
385 1 9.43451549802127 18.864248157093066 0.0007803843551402604 0 0 0
383 1 6.290556042555905 18.86466199707753 0.000833342941367892 0 0 0
351 1 0.00026610715285493945 12.577360742605604 0.0002661071528548223 0 0 0
463 1 1.5743690758291473 11.006201351761364 7.864466396132323 0 0 0
203 1 9.435657571663118 22.00780403856195 12.576849143871524 0 -1 0
685 3 11.791668735485768 11.791718239154521 11.791668735485771 0 0 0
466 1 11.024502129186132 11.024498415129809 7.932028570835776 0 0 0
467 1 14.117982689390692 11.019994555102091 7.9181763833221375 0 0 0
468 1 17.27728370174865 11.01021061730716 7.8744520053057085 0 0 0
469 1 20.432582922411278 11.00654154737219 7.865489870470666 0 0 0
470 1 1.5733970950144616 14.148278366393566 7.863871025257558 0 0 0
471 1 4.7206442980765635 14.14821675385669 7.864753007822191 0 0 0
472 1 7.858168053260481 14.155287774174946 7.858168053260481 0 0 0
473 1 11.019998119081404 14.117979611940102 7.91817520004616 0 0 0
474 1 14.129625558591453 14.12962237330897 7.887239750905692 0 0 0