LAMMPS data file via write_data, version 2 Aug 2023, timestep = 26, units = metal

687 atoms
3 atom types

0 22.009546999999998 xlo xhi
0 22.009546999999998 ylo yhi
0 22.009546999999998 zlo zhi

Masses

1 183.84
2 1.008
3 4.0026

Atoms # atomic

1 1 22.00892777462326 22.007903621397887 0.000710808607845083 -1 -1 0
2 1 1.5721279744390315 1.570791353451407 1.5731420331030117 0 0 0
3 1 3.144018293569359 22.008228253569328 0.0010109525312821978 0 -1 0
4 1 4.716624836353044 1.571122319964735 1.5734477240527902 0 0 0
5 1 6.2884534420318206 22.00833246589037 0.0010714637502730099 0 -1 0
6 1 7.86080925911896 1.5712753785076299 1.5735562467545567 0 0 0
7 1 9.432510476036903 22.008113013572128 0.0008328488865373873 0 -1 0
8 1 11.004681152844025 1.571054763496506 1.5733117473124596 0 0 0
9 1 12.576367515840538 22.007744201719394 0.00045301454948721567 0 -1 0
10 1 14.148542909984977 1.5706755831264556 1.5729399447772185 0 0 0
11 1 15.720241858086398 22.007501412158746 0.00023055946185982255 0 -1 0
12 1 17.292607412074727 1.5704336555846012 1.572721514623631 0 0 0
13 1 18.864429886073893 22.00760038634448 0.00038680986409775066 0 -1 0
14 1 20.437038803373806 1.5704913377676737 1.572821050514153 0 0 0
15 1 22.009289126723736 3.1427556302476254 0.0007599783541069076 -1 0 0
16 1 1.572449593866137 4.715146358236056 1.573240319995674 0 0 0
17 1 3.1443455732619 3.143088727098205 0.0011700137552384145 0 0 0
18 1 4.716905726033174 4.715536305762884 1.5738978791242462 0 0 0
19 1 6.288714985978075 3.1432768168118335 0.0014550334442343961 0 0 0
20 1 7.86118207388852 4.715863272910417 1.5742188417104237 0 0 0
21 1 9.43273910912171 3.1432144302007767 0.00137495005548361 0 0 0
22 1 11.004945708257376 4.715676011496301 1.5738919015169035 0 0 0
23 1 12.57658176002488 3.1428735965473154 0.000992855091849672 0 0 0
24 1 14.148708388599015 4.715257115535453 1.5732527765124533 0 0 0
25 1 15.7205299962273 3.1426162155030815 0.0006202371839617509 0 0 0
26 1 17.292878569196944 4.714889760238921 1.5727420725768178 0 0 0
27 1 18.86478999695305 3.14256186508705 0.0005411461537174607 0 0 0
28 1 20.43738427875618 4.714845881568212 1.5726535563445527 0 0 0
29 1 22.009366435992398 6.287089207035107 0.0006887961252134791 -1 0 0
30 1 1.5725141922791852 7.859390352909087 1.573317771959313 0 0 0
31 1 3.1443946156954143 6.287367975658963 0.0014289350269792802 0 0 0
32 1 4.717098058569308 7.859855406404918 1.5743080360939015 0 0 0
33 1 6.28858600892714 6.287396131300576 0.0019043883748277347 0 0 0
34 1 7.860933109760166 7.859691066526529 1.574597882134209 0 0 0
35 1 9.432923235089541 6.287598047082733 0.0017753699427633372 0 0 0
36 1 11.00512581613076 7.859882561811585 1.574245368482335 0 0 0
37 1 12.576710206184247 6.287328462613538 0.001094623485627391 0 0 0
38 1 14.14900530676748 7.859308848547846 1.5728801244916686 0 0 0
39 1 15.720681519322259 6.286994186417501 0.0003484874902472078 0 0 0
40 1 17.293016232036916 7.859095698714733 1.572079149192517 0 0 0
41 1 18.864817949461063 6.287014568598387 8.408811943832295e-05 0 0 0
42 1 20.437387044435216 7.859134629291536 1.5724449482585265 0 0 0
43 1 22.009096878650343 9.431245762176884 0.0005384271533360454 -1 0 0
44 1 1.5722439064844955 11.003456582659277 1.573250355626017 0 0 0
45 1 3.1441926260643136 9.431498247156634 0.001529707227686069 0 0 0
46 1 4.716857659771046 11.003742695942268 1.5743120911821704 0 0 0
47 1 6.288582972742595 9.431751551476388 0.0021595137231318565 0 0 0
48 1 7.86107984770546 11.003924191445831 1.5748085919946586 0 0 0
49 1 9.432338867213616 9.431306591685045 0.0020824805140702536 0 0 0
50 1 11.004804806021518 11.003616573378325 1.5730641554004041 0 0 0
51 1 12.576770628562976 9.431304420380414 0.00046537278191351416 0 0 0
52 1 14.148892030345678 11.00331137752677 1.5719949414636023 0 0 0
53 1 15.72047398474294 9.431157654789251 22.00890232508161 0 0 -1
54 1 17.292766233394065 11.003241493683023 1.571559982834009 0 0 0
55 1 18.864507697713233 9.431191474097549 22.00911661760344 0 0 -1
56 1 20.43715496738144 11.003266289977848 1.5722077600075932 0 0 0
57 1 22.008724970570032 12.575336635737239 0.00040056028940284945 -1 0 0
58 1 1.5718842691606587 14.147528018088751 1.5731308352461713 0 0 0
59 1 3.1437968545284423 12.57557151276605 0.0014433800258277835 0 0 0
60 1 4.7164873125300035 14.147609314661382 1.5739915189796874 0 0 0
61 1 6.288241637435937 12.575700543759725 0.001961321334848738 0 0 0
62 1 7.860559127537115 14.147787079540503 1.574011461745897 0 0 0
63 1 9.432270597723297 12.575767461940789 0.0012758469266929014 0 0 0
64 1 11.004462447831253 14.147662959234449 1.5728291203982714 0 0 0
65 1 12.576437784984247 12.575461334848681 22.0094753035607 0 0 -1
66 1 14.148809327713172 14.14770946286588 1.5713304396218326 0 0 0
67 1 15.719984184409723 12.575001029878536 22.008074669778086 0 0 -1
68 1 17.292421057032506 14.147137501768283 1.571425130868248 0 0 0
69 1 18.86413412147389 12.575075457235446 22.008795423414053 0 0 -1
70 1 20.436785431422688 14.147306032673637 1.5721285281250146 0 0 0
71 1 22.008461648823943 15.719394269923871 0.0003617770479427625 -1 0 0
72 1 1.5716421707915464 17.29163295291111 1.573043097290344 0 0 0
73 1 3.1435744224480655 15.719674031308031 0.0012275691259076352 0 0 0
74 1 4.7162330533202494 17.29176421112016 1.5735846362231094 0 0 0
75 1 6.287997344274792 15.719805357235705 0.0014566160283746947 0 0 0
76 1 7.860459981531034 17.29176209270297 1.5732015632030176 0 0 0
77 1 9.432198121541353 15.719543832394278 0.00043497580144904454 0 0 0
78 1 11.004420315469748 17.291495718019956 1.5724925182822032 0 0 0
79 1 12.5760190445821 15.719033943767897 22.008653571888846 0 0 -1
80 1 14.148131076475023 17.291274286071964 1.5718911460592824 0 0 0
81 1 15.720103507284229 15.719165215154707 22.008402944468237 0 0 -1
82 1 17.292397553123674 17.291407322950953 1.5718008149740026 0 0 0
83 1 18.863892069357068 15.718950801301883 22.00886291951235 0 0 -1
84 1 20.436590813854334 17.291395447335926 1.5723250637219757 0 0 0
85 1 22.008569087795752 18.863607018406476 0.0005513493567787717 -1 0 0
86 1 1.5717663366233323 20.435955611974837 1.5730773791191621 0 0 0
87 1 3.1436642354102364 18.86391850612243 0.0010936991359916219 0 0 0
88 1 4.716313675772898 20.436159737694666 1.5732312252680738 0 0 0
89 1 6.288221025065632 18.86388869988221 0.0009073672317305026 0 0 0
90 1 7.86056457149634 20.436119347124773 1.573135046983489 0 0 0
91 1 9.43237009879059 18.863542058134083 0.0003429044045043689 0 0 0
92 1 11.004467115594862 20.435888168334472 1.572755589537879 0 0 0
93 1 12.576116786870054 18.863149851473395 22.009260758298055 0 0 -1
94 1 14.148301962511033 20.43557173588054 1.57239371944574 0 0 0
95 1 15.719860277255124 18.862953039016762 22.00900292369103 0 0 -1
96 1 17.29230600197057 20.43549066586442 1.5723620462412569 0 0 0
97 1 18.864085622252343 18.863218409152946 22.009381452319957 0 0 -1
98 1 20.436664788443128 20.435636704933977 1.5726718206198882 0 0 0
99 1 22.009289245736397 22.00797116405541 3.1450941368847607 -1 -1 0
100 1 1.5724844352704321 1.5709565934344227 4.717441781690672 0 0 0
101 1 3.1443873642143334 22.00838143429838 3.145406650098275 0 -1 0
102 1 4.716954439693143 1.5716609958957262 4.717822769643739 0 0 0
103 1 6.288748132855017 22.008693045185208 3.1455604774358634 0 -1 0
104 1 7.8611908057951005 1.57203852213382 4.718092854254472 0 0 0
105 1 9.432754157133383 22.0086593226946 3.1454872245626277 0 -1 0
106 1 11.004939860444148 1.571782792183903 4.71789865518816 0 0 0
107 1 12.576589897773955 22.008300819432517 3.1451662183902975 0 -1 0
108 1 14.148690778024458 1.571160715059798 4.717507684495027 0 0 0
109 1 15.720493467970202 22.007918698872096 3.14493381734457 0 -1 0
110 1 17.2928366547958 1.5705976574289342 4.7171641703693945 0 0 0
111 1 18.864740282818467 22.007814921137992 3.1448929652923434 0 -1 0
112 1 20.437393733615757 1.570411362716355 4.717131382300647 0 0 0
113 1 0.0002453934532977546 3.1428285620143526 3.145112385873958 0 0 0
114 1 1.5732127405182132 4.715305527015378 4.717547783618282 0 0 0
115 1 3.1449469600617035 3.143428696182085 3.1457141229204693 0 0 0
116 1 4.7180443766375975 4.716527219361693 4.718765862776806 0 0 0
117 1 6.289272948949966 3.143930951612019 3.146158497054623 0 0 0
118 1 7.862224591011152 4.717203205089951 4.719347216029669 0 0 0
119 1 9.433172744210246 3.144024222850876 3.1462055610360053 0 0 0
120 1 11.005521033530814 4.717058426491778 4.719098665693445 0 0 0
121 1 12.576825084209105 3.1435968734732347 3.1457628256614174 0 0 0
122 1 14.148835499052966 4.716090805758501 4.718163033812758 0 0 0
123 1 15.720738417079538 3.1430256038500213 3.1452062342531324 0 0 0
124 1 17.29297190171775 4.71522057289083 4.717344150855904 0 0 0
125 1 18.865087255430073 3.142709549902433 3.1449589920713126 0 0 0
126 1 20.437954797654196 4.714701328103303 4.71690804417287 0 0 0
127 1 0.0006213940376356033 6.287133540188958 3.1450486543561715 0 0 0
128 1 1.5736130418659946 7.85963859294854 4.717732703356418 0 0 0
129 1 3.1453630739452922 6.287768384280105 3.1460185058506145 0 0 0
130 1 4.718657587473121 7.860761415652406 4.719337660194979 0 0 0
131 1 6.289621912866664 6.2882323058847875 3.146895019852995 0 0 0
132 1 7.862372798115766 7.860922106947694 4.720142239485354 0 0 0
133 1 9.433851264120534 6.288702589482913 3.1473758442359 0 0 0
134 1 11.00645364748728 7.862312298474064 4.721358326560941 0 0 0
135 1 12.5770094344652 6.288222429662957 3.146517425030663 0 0 0
136 1 14.149498995003524 7.860018144190244 4.718448435346693 0 0 0
137 1 15.72100040373903 6.2873573617037835 3.1452388840548675 0 0 0
138 1 17.29387683040554 7.85896077393721 4.716338284564849 0 0 0
139 1 18.865547988235985 6.286878345339877 3.144510298206017 0 0 0
140 1 20.438289881006618 7.859061502054037 4.716702896261979 0 0 0
141 1 0.000589257711064055 9.431328291895861 3.1449785248049063 0 0 0
142 1 1.57335632023784 11.003615665792939 4.717683136601569 0 0 0
143 1 3.145396833372577 9.431807382985939 3.1461843863498675 0 0 0
144 1 4.718542857317846 11.004144792127335 4.719419030859233 0 0 0
145 1 6.29006442772389 9.432510034601231 3.147650701409241 0 0 0
146 1 7.863897573622046 11.004881893875467 4.722098275271035 0 0 0
147 1 9.433137253383315 9.431766896627494 3.146937799584989 0 0 0
148 1 11.005896150200524 11.004101610929965 4.714819811532329 0 0 0
149 1 12.577794252355664 9.431601158806663 3.14587543754387 0 0 0
150 1 14.149539028871269 11.00325721059855 4.717484569332292 0 0 0
151 1 15.721375038905606 9.431310188447046 3.144400833019175 0 0 0
152 1 17.2936100640799 11.003443093459879 4.716403638290601 0 0 0
153 1 18.865516918976958 9.431226278660626 3.1442563116981863 0 0 0
154 1 20.438079253149713 11.003341796402271 4.716597322560135 0 0 0
155 1 0.0002221198671994367 12.575451271185706 3.144874067177182 0 0 0
156 1 1.5727376086449578 14.14755372557464 4.717539175838268 0 0 0
157 1 3.1450044376708957 12.575616931667202 3.1460335178453063 0 0 0
158 1 4.7177587164607795 14.147414275503271 4.718874935225117 0 0 0
159 1 6.289665170683046 12.57565363436466 3.147315644870015 0 0 0
160 1 7.8618993639509345 14.147467242062895 4.720043805178988 0 0 0
161 1 9.433037823957621 12.576274615982237 3.1468251430792504 0 0 0
162 1 11.004773163216516 14.147327908360523 4.7189979564561115 0 0 0
163 1 12.57761323022334 12.57620946678059 3.1437832167518764 0 0 0
164 1 14.150253210335658 14.148718238554196 4.715391188759118 0 0 0
165 1 15.72101367211685 12.575234289155883 3.1440788177412418 0 0 0
166 1 17.292991628348766 14.147182940266354 4.716446282673981 0 0 0
167 1 18.8652009459174 12.57530227970448 3.14406604130157 0 0 0
168 1 20.43744659450538 14.147399680595864 4.7166678686086705 0 0 0
169 1 22.009304949429065 15.71951254596673 3.144876376004788 -1 0 0
170 1 1.5721668451808402 17.291699408135056 4.717398769740615 0 0 0
171 1 3.144501853350885 15.719594782936246 3.145712016024195 0 0 0
172 1 4.717064164197725 17.291393124356972 4.718258239327446 0 0 0
173 1 6.2889822228913985 15.719525680851481 3.146419126219855 0 0 0
174 1 7.860870294720916 17.291735077829912 4.717958057532727 0 0 0
175 1 9.432776108097803 15.719675082107498 3.145830807037197 0 0 0
176 1 11.004793260005554 17.291375628663022 4.717873250090198 0 0 0
177 1 12.576377369340726 15.719440352933578 3.1449808879304033 0 0 0
178 1 14.14814333640452 17.291147233686992 4.7173166626454 0 0 0
179 1 15.720971601992787 15.719818968544088 3.1438014041313496 0 0 0
180 1 17.292518664002188 17.291333504974585 4.716920690308433 0 0 0
181 1 18.864756664746082 15.71934822438463 3.1442432571977013 0 0 0
182 1 20.436951609438502 17.291515980949924 4.716877149883841 0 0 0
183 1 22.009130788153545 18.863685930526778 3.1449836158669 -1 0 0
184 1 1.5719223556519606 20.436072914810648 4.717363006600457 0 0 0
185 1 3.144241949664672 18.863836621161308 3.1454830996837324 0 0 0
186 1 4.716491720557685 20.436339103621123 4.717571731505721 0 0 0
187 1 6.288548202227099 18.864009998917496 3.145507738826335 0 0 0
188 1 7.860761739079953 20.436460008534322 4.717624846713397 0 0 0
189 1 9.432670764871085 18.863858930692846 3.1453166550854132 0 0 0
190 1 11.00466562131872 20.43619419817834 4.717445439084363 0 0 0
191 1 12.576411831461268 18.86361030620333 3.1448571621193024 0 0 0
192 1 14.148400025839745 20.43572935120335 4.717193768895384 0 0 0
193 1 15.720295466618472 18.863416732472736 3.144604385091295 0 0 0
194 1 17.292508029981498 20.435531139502835 4.71704875531693 0 0 0
195 1 18.864554466652745 18.86346689813927 3.1447259644424617 0 0 0
196 1 20.436808364847987 20.435562379149893 4.717218713263678 0 0 0
197 1 22.009415720158525 22.008011791062597 6.289421215191745 -1 -1 0
198 1 1.5725962564355633 1.5711426782468112 7.861662139051717 0 0 0
199 1 3.1444570396599745 22.00872976600924 6.28965788376185 0 -1 0
200 1 4.717147386171816 1.572178698073703 7.862107892150401 0 0 0
201 1 6.288644818920398 22.009254677323568 6.289635994157999 0 -1 0
202 1 7.8609513732566585 1.5726428056303021 7.861891735410378 0 0 0
203 1 9.432929063745766 22.009160363135265 6.289774073407762 0 -1 0
204 1 11.005049113127034 1.5723856984406126 7.862019962884972 0 0 0
205 1 12.57665370252474 22.008548501411457 6.289554344953674 0 -1 0
206 1 14.148862678342537 1.5710683416904094 7.861515832832498 0 0 0
207 1 15.720604867424827 22.007842456207754 6.289291282788579 0 -1 0
208 1 17.29305637797969 1.570055211555325 7.8612513418404655 0 0 0
209 1 18.864821077064157 22.00746378251998 6.289291009624035 0 -1 0
210 1 20.437477870240947 1.5702839745024546 7.861378446698479 0 0 0
211 1 0.0006824318157536519 3.142834110567266 6.2893959633717085 0 0 0
212 1 1.5736588852304234 4.715560087056401 7.861884093961622 0 0 0
213 1 3.145404188489043 3.1438383170696227 6.290042514978491 0 0 0
214 1 4.718709663826232 4.717249913775127 7.8630801229291745 0 0 0
215 1 6.289664795556541 3.1448196773251555 6.290486999353637 0 0 0
216 1 7.862463014117439 4.718285394421175 7.863244920683804 0 0 0
217 1 9.433824127159303 3.1453894697252713 6.290870145816838 0 0 0
218 1 11.006329948125854 4.7197566084279545 7.864360576289401 0 0 0
219 1 12.576945694602658 3.144609901021517 6.290374476966251 0 0 0
220 1 14.149128781707056 4.716890981161779 7.862298347533238 0 0 0
221 1 15.720901370576359 3.1433062951715582 6.289559089293344 0 0 0
222 1 17.293919495641045 4.7142995576545115 7.860960980926095 0 0 0
223 1 18.86559145471581 3.142383437655472 6.289071159152203 0 0 0
224 1 20.438373986981336 4.7145502046972165 7.861224410214903 0 0 0
225 1 0.0014269031415828214 6.28687503457329 6.289060054835046 0 0 0
226 1 1.5741400678693054 7.859328372956033 7.8615128601029785 0 0 0
227 1 3.1462836055300456 6.288073159792803 6.2902797301280176 0 0 0
228 1 4.719454626039274 7.860886975998634 7.863099542740658 0 0 0
229 1 6.291841948627801 6.290391461826076 6.292572140872988 0 0 0
230 1 7.8669795727497664 7.865487611702568 7.86775534427971 0 0 0
231 1 9.436033001927358 6.291705897698997 6.293732251819568 0 0 0
232 1 11.010323177955069 7.871255099430312 7.872513002467803 0 0 0
233 1 12.577175128951156 6.290559518698526 6.292518817750892 0 0 0
234 1 14.14684611942947 7.864844512635234 7.866638934405066 0 0 0
235 1 15.720436258766275 6.288597095764295 6.290555619221288 0 0 0
236 1 17.29574881206496 7.857349602667972 7.859300210088039 0 0 0
237 1 18.866337265490195 6.286394366268564 6.288479463047471 0 0 0
238 1 20.43954357582736 7.858192131823517 7.860275508111024 0 0 0
239 1 0.0014684219418666768 9.431391920409549 6.2891370652769645 0 0 0
240 1 1.5739220252160855 11.003728660182361 7.861766188968932 0 0 0
241 1 3.146866281334153 9.432365062422537 6.290743841681568 0 0 0
242 1 4.720903969603766 11.004872046468074 7.864665529907454 0 0 0
243 1 6.293188421343327 9.434566932979767 6.2939954466171315 0 0 0
244 1 7.872969050868371 11.007946353995862 7.87409880919306 0 0 0
245 1 9.43399436741863 9.432241797381396 6.294822899224673 0 0 0
246 1 11.010476091437033 11.006598282108314 7.832557359537351 0 0 0
247 1 12.581013537428902 9.432834138932506 6.295050286057954 0 0 0
248 1 14.150696056645044 11.00175572596627 7.86644308682736 0 0 0
249 1 15.722460760338597 9.43128147379959 6.288597144316138 0 0 0
250 1 17.29373338606641 11.003633509159531 7.861259026143816 0 0 0
251 1 18.866330416449692 9.431218860776427 6.288429651396567 0 0 0
252 1 20.43852683079186 11.003366233784007 7.860676952898204 0 0 0
253 1 0.0008345872248559424 12.575493727619705 6.289109256732229 0 0 0
254 1 1.5726081528144968 14.147829568853728 7.861457687016402 0 0 0
255 1 3.146165964701871 12.575644120083556 6.290538422819358 0 0 0
256 1 4.718410282374762 14.147734455664674 7.862842020799185 0 0 0
257 1 6.29233333505936 12.575355275943332 6.2935081389003535 0 0 0
258 1 7.867741490183112 14.143101845893238 7.869317473008028 0 0 0
259 1 9.435015842159048 12.578071079291673 6.297083379404044 0 0 0
260 1 11.003850681731427 14.145139104767884 7.870300184679958 0 0 0
261 1 12.581153343784994 12.57878267333711 6.285193980108559 0 0 0
262 1 14.15164620550686 14.149419254391235 7.860815655653626 0 0 0
263 1 15.720581483554307 12.574829070443792 6.289589610806852 0 0 0
264 1 17.29282014950334 14.147115161444873 7.860558026637597 0 0 0
265 1 18.86557550594922 12.575235909809821 6.288522172409764 0 0 0
266 1 20.437290789384495 14.14744596666686 7.860762144490734 0 0 0
267 1 22.009489753934933 15.719628474269157 6.289118186125584 -1 0 0
268 1 1.5715525434609685 17.29193827646349 7.861423638574101 0 0 0
269 1 3.1450208753458666 15.719631368477227 6.2899753841197485 0 0 0
270 1 4.7161834006867 17.29231329829739 7.861689278673725 0 0 0
271 1 6.290815392597744 15.718191780008551 6.292043753659163 0 0 0
272 1 7.860168471558728 17.292083698951924 7.861598859661559 0 0 0
273 1 9.433436370809622 15.719143145658233 6.291152476027881 0 0 0
274 1 11.005129878801968 17.289682610725876 7.8633938299401684 0 0 0
275 1 12.575885476271596 15.717633595256176 6.2914022833474075 0 0 0
276 1 14.147581244949404 17.289873922888834 7.861930484709517 0 0 0
277 1 15.72086712621971 15.71942183889314 6.288992768883063 0 0 0
278 1 17.290218426961037 17.2889684068215 7.862902177917871 0 0 0
279 1 18.864860591274393 15.719349548284656 6.2887594231141595 0 0 0
280 1 20.43602126295633 17.291072708825723 7.861432357154028 0 0 0
281 1 22.008880758813252 18.863653029985983 6.289358704703531 -1 0 0
282 1 1.5717525426138896 20.436179492748504 7.861540741784185 0 0 0
283 1 3.14409746536756 18.864186586397153 6.289528676226845 0 0 0
284 1 4.716288934380589 20.436824012475892 7.861696769772859 0 0 0
285 1 6.288536301515444 18.864147755878733 6.289702823851444 0 0 0
286 1 7.860080494466774 20.437264316147516 7.861221855760694 0 0 0
287 1 9.432915539180835 18.86376329729774 6.289870216159622 0 0 0
288 1 11.004692732398597 20.436075871543085 7.861602676380015 0 0 0
289 1 12.576291516565284 18.863160355420483 6.2896765871908 0 0 0
290 1 14.148304661891279 20.43520706259222 7.861380968258181 0 0 0
291 1 15.720195468261819 18.863068167327924 6.289332505782707 0 0 0
292 1 17.292080917844565 20.4346185260383 7.861531651293342 0 0 0
293 1 18.86398236495884 18.86277590787298 6.289674815442143 0 0 0
294 1 20.436551031285802 20.435334219443636 7.861462124599369 0 0 0
295 1 22.009177218287846 22.007920033723863 9.433524670374421 -1 -1 0
296 1 1.5723350317268117 1.571100591728669 11.005718233744696 0 0 0
297 1 3.1442713572400183 22.00892447082826 9.43375305572822 0 -1 0
298 1 4.71691175990413 1.5722490387977126 11.005984472156783 0 0 0
299 1 6.2886259456517175 8.181596452612916e-05 9.433918173756302 0 0 0
300 1 7.861074738940203 1.5729674713155373 11.006059634420003 0 0 0
301 1 9.43225777963439 0.00017375818255337117 9.433346678695367 0 0 0
302 1 11.004629159379801 1.5715739422024948 11.005599267840175 0 0 0
303 1 12.576612000560392 22.00822518341915 9.433395652998934 0 -1 0
304 1 14.148797746217227 1.5702206594462322 11.005292997746363 0 0 0
305 1 15.720506793444823 22.007030147253623 9.433267567521863 0 -1 0
306 1 17.29281235678203 1.5695405842519565 11.005359884909728 0 0 0
307 1 18.86456609490357 22.007054736600598 9.433445838559804 0 -1 0
308 1 20.437256574697614 1.5700703951399784 11.005483242117815 0 0 0
309 1 0.0006957904487944938 3.1428139924307543 9.433587806777084 0 0 0
310 1 1.573390693088552 4.7155431850498175 11.005881756799498 0 0 0
311 1 3.145443696642712 3.1440692335240166 9.434091875910529 0 0 0
312 1 4.71855649278409 4.717425353136468 11.00645636061149 0 0 0
313 1 6.290101356045505 3.1457104273287846 9.434781390582593 0 0 0
314 1 7.8638829629289475 4.720494411476178 11.007206717632801 0 0 0
315 1 9.433119974077393 3.145377930328712 9.433974741019307 0 0 0
316 1 11.005406775576356 4.71458947454998 11.005992348635184 0 0 0
317 1 12.577458063585718 3.144469782148994 9.43376141141036 0 0 0
318 1 14.149412415486356 4.7154264030559885 11.004941597915353 0 0 0
319 1 15.721369594135025 3.142420103486766 9.433284541201704 0 0 0
320 1 17.29370483773125 4.714240832994006 11.005346618264664 0 0 0
321 1 18.865611799496484 3.1421401310030146 9.433345144520615 0 0 0
322 1 20.438175824249942 4.714430918189787 11.005476300602988 0 0 0
323 1 0.0015337443166447307 6.287016043147181 9.433567077149617 0 0 0
324 1 1.573931765749371 7.859644638636 11.00595724985154 0 0 0
325 1 3.1468954812974896 6.288632793879417 9.434674557783035 0 0 0
326 1 4.720872100571596 7.8626432040039695 11.007315761070545 0 0 0
327 1 6.293270681903553 6.2920783576224055 9.436962161369745 0 0 0
328 1 7.872521751544902 7.872433891784149 11.011297782026364 0 0 0
329 1 9.43417229529357 6.293662847535102 9.434770129561151 0 0 0
330 1 11.00796098962986 7.83920414451726 11.00795431434018 0 0 0
331 1 12.579717895221272 6.294495535144931 9.435487766725258 0 0 0
332 1 14.151311176452083 7.863438206760091 11.00256268224533 0 0 0
333 1 15.722545674273285 6.286401171419041 9.432910603755603 0 0 0
334 1 17.29397857008852 7.858860138631817 11.00540360799957 0 0 0
335 1 18.86646557869708 6.286294380549535 9.433168641418238 0 0 0
336 1 20.43862486705726 7.858531273777084 11.005419534380879 0 0 0
337 1 0.0019342134198136103 9.430744602414336 9.432859941465994 0 0 0
338 1 1.5722137847872821 11.0034797130801 11.005626285435842 0 0 0
339 1 3.1461408244022016 9.431630407083384 9.433831737434069 0 0 0
340 1 4.7130401166621025 11.004269189778999 11.00660013883332 0 0 0
341 1 6.293850377840498 9.432409372802617 9.434733552569702 0 0 0
342 1 7.830640929056902 11.007174167733988 11.010922032698218 0 0 0
343 1 9.437507561354655 9.434902585484055 9.438132563902702 0 0 0
344 1 20.43609733432248 20.435325352105586 20.437614098053064 0 0 0
345 1 12.586464483661487 9.447108315694583 9.449005437245553 0 0 0
346 1 14.22180586641919 10.983625721363461 10.984419234886472 0 0 0
347 1 15.727763277518944 9.425078357562079 9.426942442427414 0 0 0
348 1 17.301507168385207 10.998593562606215 11.000966341508237 0 0 0
349 1 18.869196356599847 9.42892540814986 9.430952824289106 0 0 0
350 1 20.43953050845766 11.00229415696912 11.004438993551995 0 0 0
351 1 0.0003838362218832535 12.575597740951784 9.433057173669752 0 0 0
352 1 1.571097413944424 14.14800193770585 11.005462535378873 0 0 0
353 1 3.145222993204153 12.576434774626442 9.433863044906042 0 0 0
354 1 4.7157171281565455 14.148470539489361 11.00556886387237 0 0 0
355 1 6.294656467358425 12.57839012085564 9.436026451185706 0 0 0
356 1 7.863746599226909 14.148854678250576 11.003752501597441 0 0 0
357 1 9.450739282881463 12.577335132475307 9.454069725376543 0 0 0
358 1 10.986974308348552 14.20083935117178 10.993009420309336 0 0 0
359 1 12.594042946019643 12.588130034270153 9.379328469628728 0 0 0
360 1 14.130077983793651 14.126730659968906 11.003783183546949 0 0 0
361 1 15.717222992646835 12.577252059876407 9.432233655410906 0 0 0
362 1 17.286323166501457 14.144985017356403 11.002635229946366 0 0 0
363 1 18.865300871867518 12.575483978508247 9.432596409445306 0 0 0
364 1 20.435804518787478 14.147198338413043 11.004626358746876 0 0 0
365 1 22.00842593615341 15.719598840041838 9.433223386504926 -1 0 0
366 1 1.5706545510847598 17.291946070572987 11.005565898967522 0 0 0
367 1 3.1437424389927684 15.720300395597002 9.433608141470376 0 0 0
368 1 4.7154599146857725 17.292549909821428 11.005824586195814 0 0 0
369 1 6.288182868747488 15.720530596205391 9.433911076002325 0 0 0
370 1 7.8604073003489185 17.291522354370642 11.006203477162378 0 0 0
371 1 9.429459018797617 15.720159463471306 9.43175468157588 0 0 0
372 1 10.999830868391168 17.29569016952164 11.002244595937189 0 0 0
373 1 12.577011109118688 15.710671450483638 9.436018104482221 0 0 0
374 1 14.145943012849479 17.283896808637238 11.002971663780128 0 0 0
375 1 15.713169204604979 15.71164095517223 9.438012262322278 0 0 0
376 1 17.288669564958646 17.287502240105763 11.005700924385133 0 0 0
377 1 18.862605619252598 15.71820687976579 9.433332681120755 0 0 0
378 1 20.434862203303663 17.29050324925286 11.005417774447038 0 0 0
379 1 22.008308575079457 18.86350904418923 9.433499541523238 -1 0 0
380 1 1.5712892111995242 20.43617833283467 11.005603208023595 0 0 0
381 1 3.1435998358586783 18.86439557516759 9.43365532098379 0 0 0
382 1 4.715848403300477 20.436997695222374 11.00576580487492 0 0 0
383 1 6.28804471769363 18.86463934679621 9.433851208322674 0 0 0
384 1 7.860041380565971 20.436987454941786 11.005818647207269 0 0 0
385 1 9.430792859443933 18.865691887574993 9.432318036659188 0 0 0
386 1 11.003448867266643 20.43727350897538 11.004845347706148 0 0 0
387 1 12.576264993910206 18.862050682393733 9.433724118838372 0 0 0
388 1 14.148032520434889 20.4342012027165 11.004791288219366 0 0 0
389 1 15.719151092533549 18.860972648624646 9.433609712500845 0 0 0
390 1 17.29139086897666 20.433712028561814 11.005407905228639 0 0 0
391 1 18.863284651805923 18.862155336340013 9.433654844403351 0 0 0
392 1 20.43605083406093 20.435013359692086 11.005433790609375 0 0 0
393 1 22.008819105647405 22.00780195801376 12.577596564195934 -1 -1 0
394 1 1.5719628337805858 1.5709661076998322 14.149810034623908 0 0 0
395 1 3.14390088751877 22.008848389268348 12.577795406425745 0 -1 0
396 1 4.7165401406747 1.5719296432531107 14.149871536005632 0 0 0
397 1 6.288282332083803 22.00949129125008 12.57782686556882 0 -1 0
398 1 7.86058647931857 1.572151462900939 14.149899746178239 0 0 0
399 1 9.432176004121413 22.009068016597176 12.577752755996674 0 -1 0
400 1 11.004296232571926 1.5710357948481688 14.149754715371643 0 0 0
401 1 12.576267612639016 22.007974531772543 12.577445830390182 0 -1 0
402 1 14.14872240139553 1.569409653859027 14.149750925275193 0 0 0
403 1 15.719986233522718 22.006227974284855 12.57713508337394 0 -1 0
404 1 17.292469829518083 1.56934458456501 14.149305133684258 0 0 0
405 1 18.864192949934775 22.006734209136496 12.577311625204489 0 -1 0
406 1 20.436862812222152 1.569978761186521 14.149559857444054 0 0 0
407 1 0.0003067215636956143 3.1426915999358456 12.577669011623874 0 0 0
408 1 1.5727453777362665 4.7153495807289625 14.14983466364529 0 0 0
409 1 3.145023456683819 3.143910642062721 12.577895436810964 0 0 0
410 1 4.717709382630847 4.716777998662898 14.149737146199579 0 0 0
411 1 6.289668459830596 3.1453684207322303 12.57789979013543 0 0 0
412 1 7.861969914293984 4.718243590385652 14.14964960189053 0 0 0
413 1 9.43306213933161 3.145345795269552 12.578259455852878 0 0 0
414 1 11.004433851004476 4.716881721217163 14.149677975950592 0 0 0
415 1 12.577264805899794 3.1419991951251798 12.578026753316156 0 0 0
416 1 14.150042190809277 4.712919973754628 14.150570300110031 0 0 0
417 1 15.720996287870156 3.141945889362473 12.577207356007776 0 0 0
418 1 17.293088528796652 4.714090292815337 14.149227991836936 0 0 0
419 1 18.86528559990847 3.141914581105631 12.577425782030746 0 0 0
420 1 20.43753478659483 4.7144087567482815 14.149579768500496 0 0 0
421 1 0.0008856522459868408 6.286939742079639 12.577686633378232 0 0 0
422 1 1.5725579284259552 7.859289013440769 14.15009701899389 0 0 0
423 1 3.1461204074961326 6.2884395370935255 12.577972361638409 0 0 0
424 1 4.718183930138997 7.860701231644784 14.15028256239628 0 0 0
425 1 6.292245219113575 6.291499971873694 12.577930539236792 0 0 0
426 1 7.867232820216695 7.86703314797378 14.146594061814755 0 0 0
427 1 9.435470920855547 6.296326970054953 12.580154863628849 0 0 0
428 1 11.003361720928284 7.867734684950724 14.149270509570725 0 0 0
429 1 12.57979321166934 6.282558795582838 12.579860556171749 0 0 0
430 1 14.15172400556619 7.856509839331284 14.15137879444568 0 0 0
431 1 15.720552726586376 6.286845750839874 12.57656891207535 0 0 0
432 1 17.29291280913206 7.857853586820552 14.14899032109515 0 0 0
433 1 18.865712706245407 6.286210877236377 12.57724525171565 0 0 0
434 1 20.437371992814015 7.858477669723248 14.149553670509844 0 0 0
435 1 0.00039955398864451345 9.430881751145797 12.577740506245107 0 0 0
436 1 1.5710947282643373 11.003316392503086 14.1501764690346 0 0 0
437 1 3.1451618797142693 9.431760785733392 12.578744555189223 0 0 0
438 1 4.715717538748872 11.003595295017012 14.150892767724667 0 0 0
439 1 6.29446082649872 9.433910008138065 12.581722926170372 0 0 0