LAMMPS data file via write_data, version 2 Aug 2023, timestep = 16, units = metal

685 atoms
3 atom types

0 22.009546999999998 xlo xhi
0 22.009546999999998 ylo yhi
0 22.009546999999998 zlo zhi

Masses

1 183.84
2 1.008
3 4.0026

Atoms # atomic

1 1 22.009216721815154 22.009214779294688 22.009216721815157 -1 -1 -1
2 1 1.5723108508438086 1.5723095500095106 1.5723108508438102 0 0 0
3 1 3.1445380528743168 22.009351104684104 22.00935122074923 0 -1 -1
4 1 4.716914618012831 1.5724599217586512 1.572460474411444 0 0 0
5 1 6.288972256518209 22.009362885936103 22.00936356150926 0 -1 -1
6 1 7.861070054497395 1.5725246588414936 1.5725261048088075 0 0 0
7 1 9.432973705021233 22.009231667267112 22.009233454118988 0 -1 -1
8 1 11.004881159632154 1.5724521827020719 1.5724546579547949 0 0 0
9 1 12.576733370977921 22.009095035677763 22.009097509757332 0 -1 -1
10 1 14.148638620371784 1.5723341828664512 1.5723374041068385 0 0 0
11 1 15.72049958699275 22.00899766098512 22.00900030074053 0 -1 -1
12 1 17.29257183733349 1.572229180306297 1.572231994697283 0 0 0
13 1 18.864587137184113 22.00905369462433 22.009056550274924 0 -1 -1
14 1 20.436947303363254 1.5722091839955408 1.5722121966562277 0 0 0
15 1 22.00935392151442 3.1445352274160454 22.009353921514418 -1 0 -1
16 1 1.5724619436007872 4.716913545787401 1.5724619436007883 0 0 0
17 1 3.1447312495191233 3.144729235311243 22.009507214885183 0 0 -1
18 1 4.7172556846853455 4.717255236967571 1.5730056674496455 0 0 0
19 1 6.289101131518072 3.144806995612867 0.0001206256470012054 0 0 0
20 1 7.86139628039287 4.717458606797615 1.5732440657157984 0 0 0
21 1 9.43301554634517 3.144796811884925 0.0001102648979989586 0 0 0
22 1 11.00495139968215 4.717456903809664 1.5731897982079583 0 0 0
23 1 12.57673041538864 3.1447017614506985 2.3396341678536055e-06 0 0 0
24 1 14.148461469133544 4.7173333967710445 1.5729705010647599 0 0 0
25 1 15.720492403350706 3.1446204127569817 22.009399199098304 0 0 -1
26 1 17.29233041532867 4.7171410471545405 1.5726850616556556 0 0 0
27 1 18.86460648540048 3.144569230366422 22.009326698721086 0 0 -1
28 1 20.436982818544404 4.716878771097388 1.5722929337267766 0 0 0
29 1 22.009369082040465 6.288968920003462 22.00936908204046 -1 0 -1
30 1 1.5725272695303798 7.8610705311902205 1.5725272695303796 0 0 0
31 1 3.144810064469993 6.289100764294853 0.00012081709721739102 0 0 0
32 1 4.717459839132359 7.8613965730123185 1.5732422830884887 0 0 0
33 1 6.289113828844207 6.289113997251916 0.00040691980251531223 0 0 0
34 1 7.86123160888541 7.861231641952699 1.5738300143206985 0 0 0
35 1 9.433158984011751 6.289324416112339 0.0004621209717037355 0 0 0
36 1 11.005042886940693 7.861591509271137 1.5739404002306092 0 0 0
37 1 12.576658118311748 6.2892772325070885 0.00026425581118440976 0 0 0
38 1 14.148565105121893 7.861246646026809 1.573297519515036 0 0 0
39 1 15.720369820696364 6.289135543729679 22.009426597593038 0 0 -1
40 1 17.292277013389725 7.861215930868778 1.5725677684903772 0 0 0
41 1 18.864480413574753 6.289100123266138 22.009166842101774 0 0 -1
42 1 20.436924820979677 7.8610802051530735 1.5722405969703255 0 0 0
43 1 22.009237605429266 9.432973480739285 22.00923760542927 -1 0 -1
44 1 1.5724551199512038 11.004881278924813 1.5724551199512038 0 0 0
45 1 3.144801164581233 9.433017665068432 0.00010923379796827314 0 0 0
46 1 4.717458973597924 11.004952794071265 1.573185905295853 0 0 0
47 1 6.289323828747514 9.433161370886099 0.00046051353860858396 0 0 0
48 1 7.861590627410348 11.005044317919017 1.5739373179319212 0 0 0
49 1 9.432697172991515 9.432698451288605 0.0007926938114393283 0 0 0
50 1 11.004901103666482 11.00490240448069 1.5730614741587634 0 0 0
51 1 12.576771469979084 9.432859872487372 9.943340521735984e-05 0 0 0
52 1 14.148400571083249 11.004831654460904 1.573095712498959 0 0 0
53 1 15.720214158099706 9.432934523103944 22.00908336657959 0 0 -1
54 1 17.292088314632657 11.004921170284186 1.5721946915907865 0 0 0
55 1 18.864219871512972 9.433092817169237 22.008856090691335 0 0 -1
56 1 20.436812354252368 11.00487866898934 1.5720712732918247 0 0 0
57 1 22.00909969954209 12.57673528474173 22.00909969954209 -1 0 -1
58 1 1.5723369651503394 14.148638649188824 1.572336965150339 0 0 0
59 1 3.144706637631106 12.57673287792175 2.46535487029737e-07 0 0 0
60 1 4.7173353233197375 14.148462559956943 1.5729653682106912 0 0 0
61 1 6.289278176683995 12.576660518104593 0.0002577483956734351 0 0 0
62 1 7.861245906640256 14.148566267191711 1.573290275902732 0 0 0
63 1 9.43286370894537 12.576770237075262 9.248095761241094e-05 0 0 0
64 1 11.004831878444055 14.148400113131034 1.5730893983916474 0 0 0
65 1 12.576659797851985 12.57665748643837 9.531533803862245e-05 0 0 0
66 1 14.148629928459934 14.148631439073922 1.5722699212053712 0 0 0
67 1 15.719821003133536 12.57645650268959 22.008259634792797 0 0 -1
68 1 17.292005998587435 14.148305181664833 1.5719174087192118 0 0 0
69 1 18.864036690871565 12.576619457653937 22.008561637968675 0 0 -1
70 1 20.43669845337762 14.148575029877433 1.5719294083987347 0 0 0
71 1 22.009002372813494 15.720502070850994 22.009002372813494 -1 0 -1
72 1 1.5722315366188229 17.29257201482619 1.5722315366188222 0 0 0
73 1 3.1446266085975987 15.720492699180909 22.009395214708277 0 0 -1
74 1 4.7171446568979505 17.292328477989184 1.5726780735003605 0 0 0
75 1 6.289140087291573 15.720366552024494 22.00941741324741 0 0 -1
76 1 7.861216560691308 17.29227670916673 1.5725614576578244 0 0 0
77 1 9.432938877414555 15.720209485382089 22.009070429033752 0 0 -1
78 1 11.0049201366208 17.292089364221184 1.572187104681779 0 0 0
79 1 12.576456552643942 15.719816267804953 22.008252348052533 0 0 -1
80 1 14.14830340939127 17.29200721337735 1.5719142295670165 0 0 0
81 1 15.72010478248607 15.720106027569619 22.008073528958075 0 0 -1
82 1 17.292167790867683 17.29216838788095 1.5718555609683635 0 0 0
83 1 18.86397278744001 15.720112407337863 22.00838386616193 0 0 -1
84 1 20.436668314816377 17.292425417200803 1.5718913601156292 0 0 0
85 1 22.00905653403228 18.864587123087805 22.00905653403228 -1 0 -1
86 1 1.5722110686028765 20.436946417153692 1.5722110686028767 0 0 0
87 1 3.144575809925309 18.864602898533114 22.00932117433179 0 0 -1
88 1 4.716880787703627 20.436980833836135 1.5722891365450773 0 0 0
89 1 6.289102443071423 18.864478003582597 22.009162908577846 0 0 -1
90 1 7.861082282257959 20.43692163985461 1.572233487365486 0 0 0
91 1 9.433096583365662 18.86421571751638 22.008847071011775 0 0 -1
92 1 11.004877760265412 20.43681047509551 1.5720657387286001 0 0 0
93 1 12.576616661948863 18.86403573766216 22.00855484590634 0 0 -1
94 1 14.148573588939122 20.436696504725084 1.571924893398408 0 0 0
95 1 15.720109573128424 18.863973755908603 22.008382563152573 0 0 -1
96 1 17.2924247772596 20.436667673161292 1.571889414815871 0 0 0
97 1 18.86416005670769 18.864160960747967 22.008557645869736 0 0 -1
98 1 20.436772452117086 20.436772407689496 1.572026856530803 0 0 0
99 1 22.00935122074923 22.009351104684104 3.1445380528743163 -1 -1 0
100 1 1.5724604744114437 1.572459921758651 4.716914618012833 0 0 0
101 1 3.1447299197263607 22.00950657512469 3.144729919726361 0 -1 0
102 1 4.717255786330875 1.5730058643905123 4.717255786330876 0 0 0
103 1 6.289101304350896 0.00012000021191026182 3.1448076760842305 0 0 0
104 1 7.861397212676878 1.573243311277156 4.71746008526661 0 0 0
105 1 9.433017528115181 0.00010847424982823826 3.144798949187875 0 0 0
106 1 11.004953139364254 1.5731869698663905 4.717459247845107 0 0 0
107 1 12.576733095068308 22.00954662325692 3.144705002487946 0 -1 0
108 1 14.148462815575161 1.5729666053630622 4.717336178298546 0 0 0
109 1 15.720493125157786 22.009394850962217 3.14462518610198 0 -1 0
110 1 17.29232858153616 1.5726792078059868 4.717144990191289 0 0 0
111 1 18.864602947878065 22.009321236308537 3.1445748636687574 0 -1 0
112 1 20.436980803894464 1.5722893084146814 4.71688094308074 0 0 0
113 1 22.009507214885186 3.1447292353112437 3.1447312495191233 -1 0 0
114 1 1.573005667449644 4.717255236967571 4.717255684685346 0 0 0
115 1 3.1451438353680965 3.145143479742208 3.1451438353680965 0 0 0
116 1 4.7187100143017435 4.718709388220508 4.7187100143017435 0 0 0
117 1 6.289456364116223 3.1454062576946913 3.1454072848716295 0 0 0
118 1 7.862341985801972 4.719025222533964 4.719026536098143 0 0 0
119 1 9.433238042151974 3.1455214146596537 3.145523716912234 0 0 0
120 1 11.005256619832902 4.719056005829073 4.719058328201145 0 0 0
121 1 12.576686208720508 3.1453940003047296 3.145396685737328 0 0 0
122 1 14.14799000234508 4.71868913042467 4.718690878891103 0 0 0
123 1 15.72036282445611 3.1451670495078883 3.145169809301985 0 0 0
124 1 17.29132634578237 4.718399580617911 4.718400761528602 0 0 0
125 1 18.864443690040293 3.144964299957854 3.144967434219039 0 0 0
126 1 20.436841438266946 4.717171798704151 4.7171734230140325 0 0 0
127 1 0.00012081709721639409 6.289100764294852 3.144810064469994 0 0 0
128 1 1.5732422830884882 7.8613965730123185 4.717459839132359 0 0 0
129 1 3.145406415152341 6.289455844767296 3.1454064151523404 0 0 0
130 1 4.719025177168188 7.862340577548515 4.719025177168187 0 0 0
131 1 6.290082349403357 6.290081714951615 3.1466678484343826 0 0 0
132 1 7.8630635321074855 7.86306335319192 4.7213097762071845 0 0 0
133 1 9.433836169886533 6.290544520061269 3.147157903307779 0 0 0
134 1 11.005859280894818 7.864640805312673 4.722629959192041 0 0 0
135 1 12.576515768640656 6.29038111827004 3.1468749351982446 0 0 0
136 1 14.147636683373813 7.86299246014185 4.721108069535341 0 0 0
137 1 15.719889665887266 6.28994595233197 3.146255820775345 0 0 0
138 1 17.29160755603246 7.861883872015358 4.71830306391648 0 0 0
139 1 18.864476055926893 6.289271310224436 3.1450360306461964 0 0 0
140 1 20.436968941037577 7.861255824709513 4.717178450531074 0 0 0
141 1 0.00010923379796815037 9.433017665068432 3.144801164581232 0 0 0
142 1 1.5731859052958532 11.004952794071265 4.717458973597923 0 0 0
143 1 3.145522000232837 9.433237698704671 3.145522000232837 0 0 0
144 1 4.719055221141457 11.005255047934373 4.719055221141456 0 0 0
145 1 6.290545153514225 9.433835556987367 3.1471557057503237 0 0 0
146 1 7.864640069314142 11.005858991883063 4.722626260652674 0 0 0
147 1 9.433194170061736 9.433194321533131 3.1472247324048572 0 0 0
148 1 11.005599377278736 11.005600601421722 4.715850741406239 0 0 0
149 1 12.57726196172659 9.433261890911945 3.1470229888540038 0 0 0
150 1 14.14707854785654 11.005141883307859 4.721361931417159 0 0 0
151 1 15.719922687566946 9.433457259245527 3.146221568025459 0 0 0
152 1 17.29146293901342 11.00518719890231 4.718343566106498 0 0 0
153 1 18.864391083015903 9.43318746653507 3.144940283880166 0 0 0
154 1 20.436941537821696 11.004924311782275 4.717126421296308 0 0 0
155 1 2.465354857800301e-07 12.576732877921748 3.144706637631105 0 0 0
156 1 1.5729653682106919 14.148462559956945 4.7173353233197375 0 0 0
157 1 3.1453947580594455 12.576686046122619 3.1453947580594446 0 0 0
158 1 4.718688448163038 14.14799075490976 4.7186884481630385 0 0 0
159 1 6.290381333144344 12.576515993816502 3.1468690658336733 0 0 0
160 1 7.862991034825043 14.147637233635116 4.721100030280451 0 0 0
161 1 9.43326088939448 12.577262916212346 3.1470196816760825 0 0 0
162 1 11.005140739940256 14.147079959723689 4.721356056160674 0 0 0
163 1 12.577269336626774 12.577269940034782 3.1459990744028294 0 0 0
164 1 14.14831641307491 14.1483172849902 4.7194754525573535 0 0 0
165 1 15.719791191319647 12.57643527065662 3.145933011935432 0 0 0
166 1 17.291299380342288 14.147811065262122 4.7181521623257785 0 0 0
167 1 18.86434065897713 12.576653323587276 3.144731418438554 0 0 0
168 1 20.436713343750675 14.148395001956668 4.7170682771051355 0 0 0
169 1 22.009395214708277 15.720492699180907 3.1446266085975974 -1 0 0
170 1 1.5726780735003618 17.292328477989184 4.717144656897951 0 0 0
171 1 3.145167592784657 15.720362872053506 3.145167592784657 0 0 0
172 1 4.718398748321561 17.29132727488035 4.718398748321561 0 0 0
173 1 6.289946092105989 15.719890078722232 3.1462494352641794 0 0 0
174 1 7.861882758070296 17.291608688373373 4.718297897711502 0 0 0
175 1 9.433456852998473 15.719923404915363 3.1462148045867306 0 0 0
176 1 11.005187342270068 17.291463953589705 4.718337473124034 0 0 0
177 1 12.57643425232639 15.719792538480183 3.1459298941407825 0 0 0
178 1 14.147811069618244 17.29129976107146 4.718149890408473 0 0 0
179 1 15.720100869764078 15.72010154716889 3.1452932361855934 0 0 0
180 1 17.29122160260731 17.291221742906572 4.718133876639089 0 0 0
181 1 18.864226548334788 15.720232493870327 3.1446557624043354 0 0 0
182 1 20.436565760705644 17.292247969885324 4.71702699399228 0 0 0
183 1 22.00932117433179 18.864602898533114 3.1445758099253083 -1 0 0
184 1 1.572289136545078 20.436980833836135 4.7168807877036265 0 0 0
185 1 3.144965201939482 18.864443432177993 3.1449652019394807 0 0 0
186 1 4.717171626300728 20.436842033226185 4.717171626300728 0 0 0
187 1 6.2892714369371685 18.864476143381044 3.1450315903647525 0 0 0
188 1 7.861254976939213 20.436969968172413 4.717176224544344 0 0 0
189 1 9.433187398138903 18.86439131886589 3.1449333155040686 0 0 0
190 1 11.004923834450317 20.43694273351793 4.717124129732393 0 0 0
191 1 12.576653183738282 18.864340914573955 3.1447250513741176 0 0 0
192 1 14.148396218476307 20.436714982405217 4.717065083412344 0 0 0
193 1 15.72023251744635 18.864226498083493 3.144653029137324 0 0 0
194 1 17.292248847324757 20.43656623391034 4.717025640085009 0 0 0
195 1 18.864252235299613 18.864252020750857 3.144739289740847 0 0 0
196 1 20.436728642820718 20.43672849473261 4.71693060144214 0 0 0
197 1 22.00936356150926 22.009362885936103 6.288972256518209 -1 -1 0
198 1 1.5725261048088066 1.5725246588414934 7.861070054497395 0 0 0
199 1 3.1448076760842287 0.00012000021190984926 6.289101304350895 0 0 0
200 1 4.717460085266609 1.5732433112771556 7.861397212676879 0 0 0
201 1 6.289114647181686 0.00040793231937641026 6.289114647181687 0 0 0
202 1 7.861232980818663 1.573829285935786 7.861232980818663 0 0 0
203 1 9.433160815575176 0.0004626379864174073 6.2893244598740905 0 0 0
204 1 11.00504353084343 1.5739389394038126 7.861591332480294 0 0 0
205 1 12.576659921330307 0.00026023021912650423 6.289278441478031 0 0 0
206 1 14.148564818245227 1.573291556307315 7.861245523879022 0 0 0
207 1 15.720367457026507 22.00941987707166 6.2891398070077695 0 -1 0
208 1 17.292277577651305 1.57256041059994 7.861215349253445 0 0 0
209 1 18.864478589230288 22.009163286254342 6.289102087964664 0 -1 0
210 1 20.436921899553514 1.572232750589091 7.861081717106067 0 0 0
211 1 0.00012062564700218267 3.1448069956128655 6.289101131518072 0 0 0
212 1 1.5732440657157971 4.717458606797615 7.861396280392869 0 0 0
213 1 3.1454072848716295 3.1454062576946904 6.289456364116223 0 0 0
214 1 4.719026536098144 4.719025222533964 7.862341985801972 0 0 0
215 1 6.290082971458151 3.1466674653606614 6.290082971458152 0 0 0
216 1 7.863065150111363 4.721311640645751 7.863065150111363 0 0 0
217 1 9.43383777285176 3.147157903902166 6.290546429011255 0 0 0
218 1 11.00586046731021 4.722632204768955 7.864645275317171 0 0 0
219 1 12.576515286260612 3.1468710051341775 6.290381538934934 0 0 0
220 1 14.147639050656005 4.7211026266949805 7.862994213748651 0 0 0
221 1 15.719888452893445 3.146250651934311 6.289945537959124 0 0 0
222 1 17.291608176524893 4.718298166786875 7.861882164117095 0 0 0
223 1 18.864476347146994 3.145031724889456 6.289270476594167 0 0 0
224 1 20.436969679754228 4.717176457766537 7.861253642642806 0 0 0
225 1 0.0004069198025169709 6.289113997251917 6.289113828844206 0 0 0
226 1 1.5738300143206987 7.861231641952698 7.86123160888541 0 0 0
227 1 3.1466678484343817 6.290081714951615 6.290082349403356 0 0 0
228 1 4.7213097762071845 7.8630633531919205 7.863063532107486 0 0 0
229 1 6.294132988429144 6.294132200397549 6.294132988429144 0 0 0
230 1 7.874637910447231 7.874640351016844 7.87463791044723 0 0 0
231 1 9.436013962157169 6.2941926615242325 6.294192788531682 0 0 0
232 1 11.008299775576411 7.876504761401215 7.876516046114465 0 0 0
233 1 12.575760028294521 6.293863893785749 6.293865189944735 0 0 0
234 1 14.137195341243679 7.8753841397679825 7.87540066284689 0 0 0
235 1 15.716567257807416 6.293801172705059 6.293804492816533 0 0 0
236 1 17.28973714903451 7.86277122924771 7.862779752135838 0 0 0
237 1 18.86368763200538 6.289855618259807 6.289855298242537 0 0 0
238 1 20.437147159462683 7.86086403363866 7.860863075093045 0 0 0
239 1 0.00046051353860745075 9.433161370886099 6.289323828747514 0 0 0
240 1 1.5739373179319214 11.005044317919017 7.861590627410348 0 0 0
241 1 3.1471557057503246 9.433835556987367 6.290545153514225 0 0 0
242 1 4.7226262606526745 11.005858991883064 7.864640069314142 0 0 0
243 1 6.294190227623427 9.436012785075022 6.294190227623426 0 0 0
244 1 7.876503389765567 11.008297650000612 7.876503389765567 0 0 0
245 1 9.434472429725686 9.434473410695547 6.298018081953867 0 0 0
246 1 11.008166819927155 11.008168288102821 7.833873276843577 0 0 0
247 1 12.578400617435317 9.435466366455389 6.299252815217288 0 0 0
248 1 14.14042760904163 11.005108416977249 7.876838672808856 0 0 0
249 1 15.717968479547652 9.435019376603126 6.292947228564966 0 0 0
250 1 17.28847149995135 11.005698845587869 7.864263024038562 0 0 0
251 1 18.863631267075878 9.433560301042558 6.28995402729828 0 0 0
252 1 20.43654159052263 11.004983866103641 7.861315149196904 0 0 0
253 1 0.00025774839567445454 12.576660518104593 6.289278176683994 0 0 0
254 1 1.5732902759027338 14.148566267191711 7.861245906640256 0 0 0
255 1 3.1468690658336738 12.576515993816503 6.290381333144344 0 0 0
256 1 4.721100030280452 14.147637233635114 7.862991034825043 0 0 0
257 1 6.293858253394936 12.575758356185977 6.293858253394938 0 0 0
258 1 7.87538342373108 14.137197256855965 7.87538342373108 0 0 0
259 1 9.435464857495543 12.578400737333553 6.299245996090194 0 0 0
260 1 11.005110200829261 14.140425892663592 7.876828006358254 0 0 0
261 1 12.578744480155004 12.578745215051715 6.2944184225709385 0 0 0
262 1 14.139821396586703 14.13981872254442 7.873877990999349 0 0 0
263 1 15.716660921504344 12.575384272905726 6.293748821408139 0 0 0
264 1 17.288688658982576 14.146789004902724 7.862855198562776 0 0 0
265 1 18.8633739899409 12.576350431377206 6.2899045323575695 0 0 0
266 1 20.436152336544716 14.148314335341947 7.861133166296898 0 0 0
267 1 22.00941741324741 15.720366552024492 6.289140087291572 -1 0 0
268 1 1.572561457657826 17.29227670916673 7.861216560691307 0 0 0
269 1 3.146249435264179 15.71989007872223 6.289946092105988 0 0 0
270 1 4.718297897711503 17.29160868837337 7.861882758070296 0 0 0
271 1 6.293798021803691 15.716568749449609 6.293798021803691 0 0 0
272 1 7.862775303819866 17.2897331317346 7.862775303819866 0 0 0
273 1 9.435018270376752 15.717970982242628 6.292941277613964 0 0 0
274 1 11.00570199270703 17.288469802005135 7.864256681234313 0 0 0
275 1 12.575385799026092 15.716662932206994 6.2937451823136525 0 0 0
276 1 14.14678925976896 17.28868638175823 7.862852471357315 0 0 0
277 1 15.716839006236164 15.716840122002974 6.293176354651664 0 0 0
278 1 17.289359149444767 17.28936102591205 7.863310013365699 0 0 0
279 1 18.86325998537935 15.719667677594584 6.289736323261239 0 0 0
280 1 20.4359730429837 17.291857295688693 7.861339145610515 0 0 0
281 1 22.009162908577842 18.864478003582597 6.289102443071423 -1 0 0
282 1 1.5722334873654853 20.43692163985461 7.86108228225796 0 0 0
283 1 3.1450315903647534 18.864476143381044 6.289271436937169 0 0 0
284 1 4.717176224544345 20.436969968172413 7.861254976939214 0 0 0
285 1 6.2898540851371 18.863689375567557 6.289854085137101 0 0 0
286 1 7.860864273300711 20.43714703544336 7.860864273300711 0 0 0
287 1 9.433559832447715 18.863632692484902 6.289949856513949 0 0 0
288 1 11.004984915466318 20.436543125059565 7.8613134042040755 0 0 0
289 1 12.576352032916837 18.863376355435967 6.289900044132322 0 0 0
290 1 14.148316001491745 20.436156417531574 7.861129940793236 0 0 0
291 1 15.719667757451653 18.863260751778178 6.289735982686979 0 0 0
292 1 17.291857208289674 20.435973229258316 7.861339252559416 0 0 0
293 1 18.863672137857318 18.86367195939382 6.289679331552561 0 0 0
294 1 20.436543094876672 20.436542140237275 7.861144685401917 0 0 0
295 1 22.009233454118988 22.00923166726711 9.432973705021235 -1 -1 0
296 1 1.5724546579547936 1.5724521827020712 11.004881159632154 0 0 0
297 1 3.144798949187875 0.00010847424983053406 9.433017528115181 0 0 0
298 1 4.717459247845107 1.573186969866391 11.004953139364254 0 0 0
299 1 6.28932445987409 0.00046263798641693425 9.433160815575176 0 0 0
300 1 7.861591332480295 1.5739389394038135 11.005043530843428 0 0 0
301 1 9.432698516533696 0.000791153478384769 9.432698516533696 0 0 0
302 1 11.004902916060434 1.573059829653359 11.004902916060434 0 0 0
303 1 12.576770718831083 9.232535218554003e-05 9.432862416441159 0 0 0
304 1 14.148398816703297 1.573087437078964 11.004832091748593 0 0 0
305 1 15.720209680551266 22.00906941401073 9.43293847658646 0 -1 0
306 1 17.29208877042647 1.572185029668207 11.004919943368465 0 0 0
307 1 18.864216545425222 22.00884698163725 9.433096063512325 0 -1 0
308 1 20.43681149260846 1.5720630322149984 11.004876200507338 0 0 0
309 1 0.00011026489800112733 3.1447968118849245 9.43301554634517 0 0 0
310 1 1.5731897982079572 4.717456903809663 11.00495139968215 0 0 0
311 1 3.1455237169122334 3.1455214146596533 9.433238042151974 0 0 0
312 1 4.719058328201144 4.719056005829073 11.005256619832902 0 0 0
313 1 6.290546429011255 3.1471579039021655 9.433837772851762 0 0 0
314 1 7.86464527531717 4.722632204768955 11.005860467310212 0 0 0
315 1 9.433196124666921 3.1472270632063646 9.433196124666921 0 0 0
316 1 11.005612000329402 4.715862716363156 11.005612000329402 0 0 0
317 1 12.577263915977888 3.1470195257606965 9.433262157648196 0 0 0
318 1 14.147077218569118 4.721370165521892 11.005156842586302 0 0 0
319 1 15.719922630889544 3.146215182442681 9.433456184809122 0 0 0
320 1 17.291469868120327 4.7183303383547255 11.005187614132302 0 0 0
321 1 18.86439086864108 3.1449331554237 9.433185877643393 0 0 0
322 1 20.436943721616352 4.717122945845227 11.004919817748762 0 0 0
323 1 0.0004621209717045484 6.289324416112339 9.433158984011751 0 0 0
324 1 1.573940400230609 7.861591509271136 11.005042886940693 0 0 0
325 1 3.147157903307779 6.290544520061271 9.433836169886533 0 0 0
326 1 4.722629959192041 7.864640805312674 11.005859280894816 0 0 0
327 1 6.2941927885316815 6.2941926615242325 9.43601396215717 0 0 0
328 1 7.876516046114464 7.876504761401215 11.008299775576413 0 0 0
329 1 9.434488981015653 6.298030797790135 9.434488981015653 0 0 0
330 1 11.008150561242564 7.833874804350181 11.008150561242564 0 0 0
331 1 12.57840619006379 6.299252250074553 9.435477221605202 0 0 0
332 1 14.140445996371508 7.876830165324941 11.005095867914314 0 0 0
333 1 15.717962637580177 6.2929525789220815 9.43504091453038 0 0 0
334 1 17.28847411634814 7.864246002460167 11.005704247736602 0 0 0
335 1 18.863634043401426 6.289948363255776 9.433562306263449 0 0 0
336 1 20.436549113873777 7.861308921532386 11.004986505533918 0 0 0
337 1 0.000792693811439079 9.432698451288605 9.432697172991514 0 0 0
338 1 1.573061474158765 11.00490240448069 11.00490110366648 0 0 0
339 1 3.1472247324048586 9.43319432153313 9.433194170061736 0 0 0
340 1 4.715850741406239 11.005600601421724 11.005599377278736 0 0 0
341 1 6.298018081953867 9.434473410695547 9.434472429725686 0 0 0
342 1 7.833873276843577 11.008168288102823 11.008166819927155 0 0 0
343 1 9.46623570291461 9.466222816312708 9.46623570291461 0 0 0
344 1 20.436352320161532 20.43635103358216 20.436352320161532 0 0 0
345 1 12.552409089994496 9.47527428789877 9.475267305195887 0 0 0
346 1 14.1958240268113 11.00054665566053 11.000564733528988 0 0 0
347 1 15.714169287088698 9.434581197619355 9.43460177946932 0 0 0
348 1 17.295045202194217 11.001878935629351 11.001889373371384 0 0 0
349 1 18.864611592499816 9.43204802700738 9.432060676560523 0 0 0
350 1 20.437702268038052 11.004183122648573 11.004194335642802 0 0 0
351 1 9.248095761319728e-05 12.576770237075262 9.43286370894537 0 0 0
352 1 1.5730893983916465 14.148400113131034 11.004831878444055 0 0 0
353 1 3.147019681676083 12.577262916212346 9.433260889394479 0 0 0
354 1 4.721356056160674 14.14707995972369 11.005140739940256 0 0 0
355 1 6.299245996090193 12.578400737333553 9.435464857495543 0 0 0
356 1 7.876828006358255 14.140425892663592 11.005110200829261 0 0 0
357 1 9.475260264918056 12.552399227004472 9.475260264918056 0 0 0
358 1 11.000546546040042 14.19580939456734 11.000546546040043 0 0 0
359 1 12.560961211090316 12.560951082539873 9.421448337227114 0 0 0
360 1 14.12519115223881 14.125186244390601 11.009939010124715 0 0 0
361 1 15.708018821417536 12.577047862479153 9.436911193876282 0 0 0
362 1 17.284540967586896 14.14592760946833 11.00241370056649 0 0 0
363 1 18.86233557241094 12.576696371229023 9.43323716448135 0 0 0
364 1 20.435584529740378 14.148171631404733 11.004221387493486 0 0 0
365 1 22.009070429033752 15.720209485382087 9.432938877414557 -1 0 0
366 1 1.5721871046817795 17.29208936422118 11.0049201366208 0 0 0
367 1 3.1462148045867306 15.719923404915361 9.433456852998473 0 0 0
368 1 4.718337473124035 17.291463953589705 11.005187342270068 0 0 0
369 1 6.292941277613963 15.717970982242628 9.435018270376752 0 0 0
370 1 7.864256681234313 17.28846980200514 11.005701992707031 0 0 0
371 1 9.434589015154767 15.71417018953245 9.434589015154767 0 0 0
372 1 11.001881204802709 17.295027128117525 11.001881204802709 0 0 0
373 1 12.577048167521331 15.708005375649236 9.436908407915755 0 0 0
374 1 14.145937851665584 17.28453597781396 11.00240654444126 0 0 0
375 1 15.711269218605965 15.711260716669589 9.43902057237734 0 0 0
376 1 17.288163057106733 17.288158359433897 11.00552150378414 0 0 0
377 1 18.861848780135183 15.718981654193396 9.433313630019498 0 0 0
378 1 20.435166744145562 17.291242074223927 11.004989942875827 0 0 0
379 1 22.00884707101178 18.86421571751638 9.433096583365664 -1 0 0
380 1 1.572065738728596 20.43681047509551 11.004877760265412 0 0 0
381 1 3.144933315504068 18.86439131886589 9.433187398138902 0 0 0
382 1 4.717124129732394 20.436942733517927 11.004923834450317 0 0 0
383 1 6.289949856513949 18.863632692484902 9.433559832447715 0 0 0
384 1 7.861313404204076 20.436543125059565 11.004984915466318 0 0 0
385 1 9.432053613622342 18.864609982618965 9.432053613622344 0 0 0
386 1 11.004186919713883 20.437697287668808 11.004186919713883 0 0 0
387 1 12.576701021531967 18.8623294593742 9.43323437272347 0 0 0
388 1 14.148173921544279 20.43557863163547 11.004217490815932 0 0 0
389 1 15.718982008035391 18.861847012705837 9.433311758938041 0 0 0
390 1 17.291245081480742 20.435168499647006 11.004988097812394 0 0 0
391 1 18.863200622255736 18.863201097389563 9.43342492259279 0 0 0
392 1 20.43625641020115 20.436254626321116 11.004897506600296 0 0 0
393 1 22.009097509757332 22.009095035677763 12.576733370977921 -1 -1 0
394 1 1.572337404106837 1.5723341828664514 14.148638620371784 0 0 0
395 1 3.1447050024879437 22.00954662325692 12.576733095068308 0 -1 0
396 1 4.717336178298547 1.5729666053630622 14.148462815575161 0 0 0
397 1 6.2892784414780305 0.00026023021912746196 12.576659921330307 0 0 0
398 1 7.861245523879021 1.5732915563073155 14.148564818245228 0 0 0
399 1 9.432862416441159 9.232535218598058e-05 12.576770718831083 0 0 0
400 1 11.004832091748593 1.5730874370789674 14.148398816703299 0 0 0
401 1 12.576658186935942 9.008522443323826e-05 12.57665818693594 0 0 0
402 1 14.148630414825588 1.5722614302603009 14.148630414825588 0 0 0
403 1 15.719816637377773 22.00824900808034 12.576455213979619 0 -1 0
404 1 17.29200624558295 1.5719078388154197 14.148303454765422 0 0 0
405 1 18.864035570983283 22.00855114653186 12.57661720849437 0 -1 0
406 1 20.43669834172524 1.5719208049132185 14.1485720847289 0 0 0
407 1 2.33963416762309e-06 3.1447017614506985 12.57673041538864 0 0 0
408 1 1.572970501064759 4.7173333967710445 14.148461469133542 0 0 0
409 1 3.1453966857373277 3.1453940003047296 12.576686208720508 0 0 0
410 1 4.718690878891103 4.7186891304246705 14.14799000234508 0 0 0
411 1 6.290381538934934 3.1468710051341775 12.576515286260614 0 0 0
412 1 7.862994213748651 4.7211026266949805 14.147639050656005 0 0 0
413 1 9.433262157648194 3.147019525760696 12.577263915977888 0 0 0
414 1 11.005156842586304 4.721370165521892 14.147077218569118 0 0 0
415 1 12.577271390363443 3.146007125852148 12.577271390363443 0 0 0
416 1 14.148315439274759 4.719473555983702 14.14831543927476 0 0 0
417 1 15.719795809891478 3.1459219705174157 12.576435089303695 0 0 0
418 1 17.291311711441065 4.718141911489188 14.147817639798603 0 0 0
419 1 18.86434199668672 3.144720744575028 12.576651216696137 0 0 0
420 1 20.43672092095384 4.717058915146637 14.14839667205322 0 0 0
421 1 0.0002642558111831985 6.2892772325070885 12.576658118311748 0 0 0
422 1 1.5732975195150367 7.8612466460268084 14.148565105121891 0 0 0
423 1 3.146874935198244 6.290381118270039 12.576515768640656 0 0 0
424 1 4.721108069535342 7.86299246014185 14.147636683373813 0 0 0
425 1 6.293865189944736 6.2938638937857485 12.575760028294521 0 0 0
426 1 7.875400662846889 7.8753841397679825 14.137195341243679 0 0 0
427 1 9.435477221605202 6.299252250074554 12.578406190063792 0 0 0
428 1 11.005095867914315 7.876830165324941 14.140445996371508 0 0 0
429 1 12.578752557137955 6.294384522511181 12.578752557137957 0 0 0
430 1 14.139850365837205 7.873887629305833 14.139850365837209 0 0 0
431 1 15.716668140574201 6.293734362068191 12.575391939387496 0 0 0
432 1 17.28869587436863 7.862837461246782 14.146792443012314 0 0 0
433 1 18.863387057290055 6.289891194138338 12.576362396891348 0 0 0
434 1 20.436162267111065 7.861120729619715 14.148321192967487 0 0 0
435 1 9.943340521779314e-05 9.432859872487372 12.576771469979086 0 0 0
436 1 1.5730957124989593 11.004831654460906 14.148400571083249 0 0 0
437 1 3.1470229888540033 9.433261890911945 12.57726196172659 0 0 0
438 1 4.721361931417158 11.005141883307857 14.147078547856541 0 0 0
439 1 6.2992528152172875 9.435466366455389 12.578400617435317 0 0 0