LAMMPS data file via write_data, version 2 Aug 2023, timestep = 25, units = metal

685 atoms
3 atom types

0 22.009546999999998 xlo xhi
0 22.009546999999998 ylo yhi
0 22.009546999999998 zlo zhi

Masses

1 183.84
2 1.008
3 4.0026

Atoms # atomic

43 1 0.0014303429281796209 9.432523049460245 0.0014303429281793175 0 0 0
2 1 1.5751667674512384 1.5751659174273696 1.5751667674512384 0 0 0
3 1 3.1424708880749104 0.002953165658883374 0.00295507150768203 0 0 0
4 1 4.719144708124102 1.5792900419739062 1.5792916719743424 0 0 0
5 1 6.287644435862487 0.00397400878924453 0.003977352590799734 0 0 0
6 1 7.862959608890935 1.579877857583412 1.5798818982948344 0 0 0
7 1 9.432528279578113 0.0014271678713593128 0.0014322474286938892 0 0 0
8 1 11.006594089321755 1.576765317216707 1.5767704844135089 0 0 0
126 1 18.89208210316256 9.427990992173541 6.274602448242772 0 0 0
10 1 14.150864459657898 1.5723894184939542 1.5723929914108181 0 0 0
125 1 15.754601441051069 9.42188227291256 6.259438158315276 0 0 0
12 1 17.295704685514387 1.569805885970069 1.5698081935401107 0 0 0
124 1 12.596118490307287 9.46044791506344 6.319767947075605 0 0 0
14 1 20.44083405759195 1.5707961626294613 1.5707976492969002 0 0 0
15 1 0.0029546592351529736 3.1424700471553026 0.0029546592351522437 0 0 0
16 1 1.5792915728531556 4.719143144782348 1.5792915728531545 0 0 0
17 1 3.1460291374583225 3.1460270882120427 0.008750168319409122 0 0 0
18 1 4.723363448540998 4.723360955811456 1.5878838706060037 0 0 0
19 1 6.289981347817871 3.1470629797700584 0.012755646595081424 0 0 0
20 1 7.866508557712717 4.724657248953868 1.5911703751606272 0 0 0
21 1 9.434116950321348 3.1449839975121483 0.012077886701047775 0 0 0
22 1 11.008623261824294 4.721348469037486 1.5872447736100623 0 0 0
23 1 12.578682896424489 3.141007630146911 0.007811459150483172 0 0 0
24 1 14.152499780179149 4.716514755602255 1.5797271612285222 0 0 0
25 1 15.723659584589589 3.138233246716374 0.003194735352790791 0 0 0
26 1 17.298685656522693 4.713410663969404 1.5734319592038755 0 0 0
27 1 18.868824517401148 3.1385577146215997 0.00118949727288364 0 0 0
28 1 20.444770585649252 4.714503942088734 1.5725766393153928 0 0 0
29 1 0.003976362946179588 6.287641678762696 0.003976362946179742 0 0 0
30 1 1.5798806931424623 7.862956057193437 1.579880693142462 0 0 0
31 1 3.1470668263583295 6.2899777284350264 0.012754736157554021 0 0 0
32 1 4.724660462627648 7.866505151348095 1.5911697989990614 0 0 0
33 1 6.290219966625488 6.290215680202201 0.021860826095723127 0 0 0
34 1 7.868743325453004 7.868739498648381 1.5985756872719539 0 0 0
35 1 9.434901858005226 6.2889349738439435 0.021839237584023726 0 0 0
36 1 11.010278609717977 7.866335669444359 1.592458221616534 0 0 0
37 1 12.57950039444679 6.28537690746115 0.014640226229385274 0 0 0
38 1 14.15279317647643 7.861796237855196 1.578433854484397 0 0 0
39 1 15.72491439495276 6.283588861812107 0.006011055724439044 0 0 0
40 1 17.2997763505669 7.858456631738388 1.5677772905711647 0 0 0
41 1 18.869945026014626 6.2846794323308 0.00034925510537025514 0 0 0
42 1 20.44512177434048 7.859710777244484 1.5705981516659397 0 0 0
398 1 17.312885113050925 11.004315628089396 4.697062645823955 0 0 0
44 1 3.144988013091219 9.434111993123247 0.01207630815933708 0 0 0
45 1 6.2889387009119755 9.434897872307632 0.021839046544604713 0 0 0
46 1 9.433973144039596 9.433969287028155 0.022609238059550223 0 0 0
47 1 12.577353654111375 9.431597353371831 0.008483601434077037 0 0 0
349 1 17.29796122269978 11.003859471194598 1.559160196060099 0 0 0
350 1 20.44235925604716 11.00470389058447 1.5660102716479087 0 0 0
50 1 0.002955071507680646 0.0029531656588838453 3.1424708880749126 0 0 0
51 1 1.5792916719743413 1.5792900419739062 4.7191447081241025 0 0 0
52 1 3.1460280158467278 0.008748777318281956 3.146028015846728 0 0 0
53 1 4.723362287065069 1.5878826249883584 4.723362287065069 0 0 0
54 1 6.289979540788725 0.012752606698388758 3.1470662419291533 0 0 0
55 1 7.866507344657365 1.5911675062393338 4.724659976729137 0 0 0
56 1 9.434115487856984 0.012073719781078556 3.144988634090669 0 0 0
57 1 11.008622323859669 1.5872410764569016 4.721352404125967 0 0 0
58 1 12.578683288338839 0.007807554355755323 3.141011962966274 0 0 0
59 1 14.152500133544434 1.5797230299274037 4.716518910608554 0 0 0
60 1 15.723660779594615 0.0031919023419021203 3.138236450381081 0 0 0
61 1 17.29868633066358 1.5734282010351335 4.7134146429843184 0 0 0
62 1 18.868825236063824 0.0011870824836798487 3.1385593908886564 0 0 0
63 1 20.444771471593082 1.5725736014824954 4.714507086211722 0 0 0
64 1 0.008750168319407774 3.146027088212042 3.1460291374583225 0 0 0
65 1 1.5878838706060034 4.723360955811457 4.723363448540998 0 0 0
66 1 3.1531155709305443 3.153114537892471 3.153115570930544 0 0 0
67 1 4.7344511088556365 4.734449793560689 4.7344511088556365 0 0 0
68 1 6.2967655343910245 3.158113105428895 3.1581151475897995 0 0 0
69 1 7.876280710085085 4.740059492951283 4.740061783796364 0 0 0
70 1 9.438334401175313 3.1573115369110814 3.1573157731062067 0 0 0
71 1 11.013125443960098 4.734629792869877 4.734633533811689 0 0 0
72 1 12.580486451582434 3.151733957346267 3.1517386655073825 0 0 0
73 1 14.154367840399962 4.7234687048601565 4.7234737456510825 0 0 0
74 1 15.72533446879767 3.1456709073814793 3.1456756318035106 0 0 0
75 1 17.30417071390903 4.713224208091102 4.713229474273386 0 0 0
76 1 18.872673454988554 3.142638413926534 3.1426420594037694 0 0 0
77 1 20.452709401480973 4.7139466521265785 4.713950956614032 0 0 0
78 1 0.012754736157555282 6.289977728435027 3.1470668263583303 0 0 0
79 1 1.5911697989990612 7.866505151348095 4.724660462627648 0 0 0
80 1 3.158114835213443 6.296763584300166 3.158114835213443 0 0 0
81 1 4.7400619283727865 7.876277915205151 4.740061928372786 0 0 0
82 1 6.303661699076455 6.303659103668312 3.169464725602167 0 0 0
83 1 7.887669633276855 7.887666298720253 4.756011293959962 0 0 0
84 1 9.44365460532953 6.304078441535331 3.1699150979282047 0 0 0
85 1 11.020447553163788 7.883752410154531 4.748292919444477 0 0 0
86 1 12.582528461752986 6.296946547821447 3.158892352577907 0 0 0
87 1 14.157874885088685 7.86786211656147 4.721509047246158 0 0 0
88 1 15.72792959368698 6.288968259495186 3.1455031007995324 0 0 0
89 1 17.312792158046854 7.853821703797646 4.702590869779913 0 0 0
90 1 18.877513923959782 6.285047776945997 3.139532688635706 0 0 0
91 1 20.45609061536529 7.859068796587837 4.712168560099896 0 0 0
92 1 0.01207630815933695 9.434111993123247 3.1449880130912184 0 0 0
93 1 3.1573148756594587 9.438330701031939 3.1573148756594582 0 0 0
94 1 6.304081974518909 9.443650607744297 3.1699151543490522 0 0 0
95 1 9.446888733593918 9.446884865159749 3.17405377546771 0 0 0
96 1 12.584468443805969 9.44157162880684 3.1572479801373143 0 0 0
97 1 15.731155647251054 9.433058534045072 3.134673131672153 0 0 0
98 1 18.877742560291033 9.431318844465194 3.135158746537647 0 0 0
99 1 0.003977352590799083 0.003974008789244485 6.287644435862488 0 0 0
100 1 3.1470662419291524 0.012752606698389238 6.289979540788725 0 0 0
101 1 6.290217867010125 0.021857682038231494 6.290217867010124 0 0 0
102 1 9.434899885944619 0.02183585772882973 6.288938004269948 0 0 0
103 1 12.579500537519323 0.014636145414045607 6.285380384651395 0 0 0
104 1 15.724915768578246 0.006006921965519905 6.283592797648579 0 0 0
105 1 18.86994725906886 0.00034625585766015493 6.284683406983847 0 0 0
106 1 0.012755646595081 3.147062979770058 6.2899813478178705 0 0 0
107 1 3.158115147589799 3.1581131054288947 6.2967655343910245 0 0 0
108 1 6.303660677373206 3.1694634358084666 6.303660677373206 0 0 0
109 1 9.443653451888729 3.169912745781094 6.304081309175313 0 0 0
110 1 12.582527799608977 3.158888425319706 6.296950444040847 0 0 0
111 1 15.727929946958993 3.145497963739505 6.2889728233944 0 0 0
112 1 18.87751473016708 3.139528069324137 6.285052651539172 0 0 0
113 1 0.021860826095723075 6.290215680202201 6.290219966625487 0 0 0
114 1 3.1694647256021673 6.303659103668313 6.303661699076455 0 0 0
115 1 6.323038248632892 6.323035972585541 6.3230382486328915 0 0 0
116 1 9.4580461959801 6.327169021320139 6.327171577644184 0 0 0
117 1 12.586002934435305 6.308647999601865 6.30865168302272 0 0 0
118 1 15.736796108503523 6.28329724875809 6.283302384365717 0 0 0
119 1 18.890815813884462 6.277057955979457 6.277063293722876 0 0 0
120 1 0.021839046544604005 9.434897872307634 6.288938700911975 0 0 0
121 1 3.1699151543490522 9.443650607744297 6.304081974518909 0 0 0
122 1 6.327172179620667 9.458043264755684 6.327172179620667 0 0 0
123 1 9.477331077923505 9.47732841413656 6.353063840733456 0 0 0
127 1 1.5798818982948346 1.579877857583412 7.862959608890935 0 0 0
128 1 4.724659976729137 1.5911675062393345 7.866507344657365 0 0 0
129 1 7.8687418393122615 1.5985727630501763 7.8687418393122615 0 0 0
130 1 11.010277066816808 1.5924547231068757 7.866338394356629 0 0 0
131 1 14.15279301672338 1.5784287327815925 7.861800295091507 0 0 0
132 1 17.29977761014724 1.5677725100934887 7.858461814966076 0 0 0
133 1 20.44512361957054 1.5705939255704973 7.859715654164358 0 0 0
134 1 1.5911703751606279 4.724657248953869 7.866508557712717 0 0 0
135 1 4.740061783796365 4.740059492951283 7.876280710085085 0 0 0
136 1 7.887668675724164 4.756009386180411 7.887668675724164 0 0 0
137 1 11.020446963919406 4.748289965871655 7.883755573313292 0 0 0
138 1 14.157874253766517 4.72150455771207 7.867866152730954 0 0 0
139 1 17.312792624115826 4.7025852134653965 7.853826789714934 0 0 0
140 1 20.45609117230685 4.7121641361272095 7.85907358322027 0 0 0
141 1 1.5985756872719539 7.868739498648381 7.868743325453004 0 0 0
142 1 4.756011293959962 7.887666298720252 7.887669633276855 0 0 0
143 1 7.930756568654119 7.93075416308381 7.930756568654118 0 0 0
144 1 11.042252278754267 7.92349158275517 7.923494718984852 0 0 0
145 1 14.172718090018119 7.857518596675256 7.857522041414423 0 0 0
146 1 17.341023759936164 7.82980441069168 7.8298089190688005 0 0 0
147 1 20.46607775660541 7.855288552828746 7.8552931412948706 0 0 0
148 1 0.0014322474286948084 0.001427167871360619 9.432528279578113 0 0 0
149 1 1.5767704844135086 1.576765317216707 11.006594089321755 0 0 0
150 1 3.144988634090668 0.012073719781079595 9.434115487856984 0 0 0
151 1 4.721352404125968 1.5872410764569018 11.008622323859667 0 0 0
152 1 6.288938004269949 0.021835857728829806 9.434899885944619 0 0 0
153 1 7.86633839435663 1.5924547231068753 11.010277066816807 0 0 0
154 1 9.433971350865532 0.022605674973855263 9.433971350865532 0 0 0
155 1 11.00918733284216 1.583757943653587 11.00918733284216 0 0 0
156 1 12.577353604789025 0.008479333454524009 9.43159985317529 0 0 0
157 1 14.151715197258165 1.5653089874076382 11.005969688276737 0 0 0
245 1 18.87719375495312 9.418699878262373 12.572071588841442 0 0 0
159 1 17.29796143631089 1.5591557888915557 11.003864079917104 0 0 0
244 1 15.754224120894126 9.363893646741559 12.599048974193748 0 0 0
161 1 20.442360454061127 1.5660061068391031 11.00470949105829 0 0 0
162 1 0.012077886701048481 3.1449839975121474 9.434116950321348 0 0 0
163 1 1.5872447736100623 4.721348469037486 11.008623261824294 0 0 0
164 1 3.1573157731062067 3.1573115369110814 9.438334401175313 0 0 0
165 1 4.734633533811689 4.734629792869877 11.013125443960098 0 0 0
166 1 6.304081309175314 3.169912745781094 9.443653451888729 0 0 0
167 1 7.883755573313292 4.748289965871656 11.020446963919406 0 0 0
168 1 9.446887492844189 3.1740507384135124 9.44688749284419 0 0 0
169 1 11.023131694228956 4.745795406970035 11.023131694228956 0 0 0
170 1 12.584467089509522 3.1572440275004228 9.441574913638938 0 0 0
171 1 14.164624714705802 4.706135539657041 11.011255037126237 0 0 0
172 1 15.731155560744773 3.1346678979942975 9.43306290629302 0 0 0
173 1 17.31288510181953 4.69705761672779 11.004318877084103 0 0 0
174 1 18.87774288791667 3.1351538640482555 9.43132428257931 0 0 0
175 1 20.453722920248733 4.708557034994266 11.005412128516166 0 0 0
176 1 0.02183923758402473 6.288934973843944 9.434901858005226 0 0 0
177 1 1.592458221616534 7.866335669444359 11.010278609717977 0 0 0
178 1 3.1699150979282047 6.304078441535331 9.44365460532953 0 0 0
179 1 4.748292919444476 7.883752410154531 11.020447553163788 0 0 0
180 1 6.327171577644185 6.327169021320139 9.4580461959801 0 0 0
181 1 7.923494718984852 7.92349158275517 11.042252278754267 0 0 0
182 1 9.477331100139049 6.353061821344543 9.477331100139049 0 0 0
183 1 11.059591748396043 7.971061289665319 11.059591748396043 0 0 0
184 1 12.596117800573074 6.31976458619466 9.4604507431149 0 0 0
185 1 14.21944859681544 7.829098943546038 10.984285783972776 0 0 0
186 1 15.754601398940322 6.2594337959403505 9.421885972824416 0 0 0
187 1 17.331819495954683 7.8333890152591765 11.000809706119197 0 0 0
188 1 18.892082631649313 6.274597407388631 9.42799493266131 0 0 0
189 1 20.459865269783627 7.85274306842932 11.004404917762523 0 0 0
190 1 0.022609238059549775 9.433969287028155 9.433973144039596 0 0 0
191 1 3.1740537754677103 9.446884865159749 9.446888733593918 0 0 0
192 1 6.353063840733456 9.477328414136561 9.477331077923505 0 0 0
193 1 9.586076970920097 9.586072901188844 9.586076970920098 0 0 0
194 1 12.673145774611363 9.474868626571014 9.474871282864946 0 0 0
195 1 15.820427311194077 9.35545800886826 9.355461714624969 0 0 0
196 1 18.9020205762775 9.420507184391763 9.420510322997655 0 0 0
243 1 12.701911138040414 9.10422407940147 12.701911138040414 0 0 0
198 1 1.5723929914108177 1.572389418493954 14.1508644596579 0 0 0
199 1 3.141011962966275 0.007807554355755051 12.578683288338837 0 0 0
200 1 4.716518910608554 1.5797230299274037 14.152500133544434 0 0 0
201 1 6.285380384651395 0.014636145414045156 12.579500537519323 0 0 0
202 1 7.861800295091507 1.5784287327815922 14.152793016723383 0 0 0
203 1 9.43159985317529 0.008479333454523931 12.577353604789025 0 0 0
204 1 11.005969688276737 1.5653089874076385 14.151715197258163 0 0 0
242 1 9.474871282864948 9.474868626571014 12.673145774611362 0 0 0
206 1 14.149340618489761 1.5511885961276743 14.14934061848976 0 0 0
241 1 6.319767947075606 9.46044791506344 12.596118490307287 0 0 0
208 1 17.2943911449397 1.5519612210167852 14.148439535155534 0 0 0
240 1 3.1572479801373143 9.44157162880684 12.584468443805969 0 0 0
210 1 20.438361661166763 1.5617320674924173 14.149258274187572 0 0 0
211 1 0.007811459150484167 3.1410076301469103 12.578682896424489 0 0 0
212 1 1.5797271612285226 4.7165147556022555 14.152499780179149 0 0 0
213 1 3.1517386655073825 3.1517339573462673 12.580486451582434 0 0 0
214 1 4.7234737456510825 4.7234687048601565 14.154367840399962 0 0 0
215 1 6.296950444040847 3.1588884253197054 12.582527799608977 0 0 0
216 1 7.867866152730954 4.72150455771207 14.157874253766517 0 0 0
217 1 9.441574913638938 3.157244027500422 12.584467089509522 0 0 0
218 1 11.011255037126237 4.70613553965704 14.164624714705802 0 0 0
219 1 12.583199926692027 3.138993532192136 12.583199926692027 0 0 0
220 1 14.162810277422572 4.68131302237415 14.162810277422572 0 0 0
221 1 15.730575530577532 3.123469887970676 12.578933272518206 0 0 0
222 1 17.308727139374326 4.691264872074276 14.155357175341502 0 0 0
223 1 18.87479277779152 3.129630851342208 12.577962097778043 0 0 0
224 1 20.448180415766714 4.705616759111168 14.15205344876944 0 0 0
225 1 0.0146402262293854 6.28537690746115 12.57950039444679 0 0 0
226 1 1.5784338544843968 7.861796237855197 14.152793176476433 0 0 0
227 1 3.1588923525779067 6.296946547821447 12.582528461752988 0 0 0
228 1 4.721509047246157 7.86786211656147 14.157874885088685 0 0 0
229 1 6.3086516830227195 6.308647999601866 12.586002934435305 0 0 0
230 1 7.857522041414423 7.857518596675256 14.172718090018119 0 0 0
231 1 9.4604507431149 6.31976458619466 12.596117800573074 0 0 0
232 1 10.984285783972776 7.829098943546039 14.219448596815441 0 0 0
233 1 12.60104822012812 6.284561449800233 12.60104822012812 0 0 0
234 1 14.227873793224072 7.762922575884529 14.227873793224072 0 0 0
235 1 15.749933704323126 6.251512266796585 12.582533239194579 0 0 0
236 1 17.32389736492106 7.828751445805475 14.161455162744504 0 0 0
237 1 18.886273445920327 6.270453499472977 12.579041788714711 0 0 0
238 1 20.44866690424017 7.852190368768064 14.150286087576477 0 0 0
239 1 0.008483601434076667 9.431597353371831 12.577353654111375 0 0 0
542 1 7.82910202843844 10.984283195082435 14.219448646691601 0 0 0
468 1 17.331819697412357 11.000807072578098 7.833392503903461 0 0 0
545 1 17.26357260916367 10.987223946239489 14.122883881829468 0 0 0
495 1 14.479102311040243 10.881431234504632 10.881432591838262 0 0 0
496 1 17.298770294750273 10.982277220504196 10.982279305703122 0 0 0
544 1 14.108467220854608 10.910194130894757 14.108467220854607 0 0 0
543 1 10.881432591838262 10.881431234504632 14.479102311040242 0 0 0
467 1 14.2194486466916 10.984283195082435 7.82910202843844 0 0 0
546 1 20.426092349618337 10.998855501457031 14.141735671190217 0 0 0
497 1 20.444346246862537 11.00010367421232 11.000106550730402 0 0 0
469 1 20.459864443242637 11.004401497358508 7.852746824320043 0 0 0
343 1 18.85987867765755 9.429015266058238 18.85987867765755 0 0 0
247 1 1.56980819354011 1.569805885970069 17.295704685514387 0 0 0
248 1 3.1382364503810805 0.003191902341900872 15.723660779594614 0 0 0
249 1 4.713414642984318 1.573428201035134 17.29868633066358 0 0 0
250 1 6.28359279764858 0.006006921965520004 15.724915768578246 0 0 0
251 1 7.858461814966076 1.567772510093488 17.29977761014724 0 0 0
342 1 15.71546836876038 9.425479186757164 18.861838044343997 0 0 0
253 1 11.003864079917104 1.559155788891556 17.29796143631089 0 0 0
341 1 12.572071588841442 9.418699878262373 18.87719375495312 0 0 0
255 1 14.148439535155534 1.5519612210167855 17.2943911449397 0 0 0
340 1 9.420510322997657 9.420507184391765 18.9020205762775 0 0 0
257 1 17.29309954430117 1.5519323267003584 17.29309954430117 0 0 0
339 1 6.274602448242771 9.427990992173541 18.89208210316256 0 0 0
259 1 20.43624882521923 1.5610237566837755 17.29334934255297 0 0 0
260 1 0.0031947353527916537 3.138233246716374 15.723659584589589 0 0 0
261 1 1.5734319592038746 4.713410663969403 17.298685656522693 0 0 0
262 1 3.1456756318035097 3.1456709073814797 15.72533446879767 0 0 0
263 1 4.713229474273387 4.713224208091102 17.30417071390903 0 0 0
264 1 6.2889728233944 3.145497963739505 15.72792994695899 0 0 0
265 1 7.853826789714934 4.702585213465396 17.312792624115826 0 0 0
266 1 9.43306290629302 3.1346678979942975 15.731155560744773 0 0 0
267 1 11.004318877084103 4.697057616727789 17.31288510181953 0 0 0
268 1 12.578933272518206 3.1234698879706766 15.730575530577532 0 0 0
269 1 14.1553571753415 4.691264872074276 17.308727139374326 0 0 0
270 1 15.728036485587404 3.1172740584580754 15.728036485587403 0 0 0
271 1 17.306278273201606 4.692544449978073 17.306278273201606 0 0 0
272 1 18.871162130026764 3.127261075965004 15.724276127432855 0 0 0
273 1 20.44379796885215 4.705846926279812 17.298305727383436 0 0 0
274 1 0.006011055724439124 6.283588861812108 15.72491439495276 0 0 0
275 1 1.5677772905711647 7.858456631738389 17.2997763505669 0 0 0
276 1 3.145503100799533 6.288968259495187 15.72792959368698 0 0 0
277 1 4.702590869779913 7.853821703797646 17.312792158046854 0 0 0
278 1 6.283302384365717 6.283297248758091 15.736796108503523 0 0 0
279 1 7.8298089190688005 7.829804410691681 17.341023759936164 0 0 0
280 1 9.421885972824416 6.2594337959403505 15.754601398940322 0 0 0
281 1 11.000809706119195 7.833389015259177 17.331819495954683 0 0 0
282 1 12.582533239194579 6.251512266796586 15.749933704323126 0 0 0
283 1 14.161455162744504 7.828751445805475 17.32389736492106 0 0 0
284 1 15.753534666166374 6.242324794633323 15.753534666166374 0 0 0
285 1 17.30003597701879 7.846580965984595 17.30003597701879 0 0 0
286 1 18.880741016971157 6.270577865697121 15.729527041909268 0 0 0
287 1 20.43783884238107 7.855450393467814 17.294386790248232 0 0 0
288 1 22.00491628046615 9.430562892340143 15.721539412792731 -1 0 0
289 1 3.1346731316721534 9.433058534045072 15.731155647251056 0 0 0
290 1 6.259438158315276 9.42188227291256 15.754601441051069 0 0 0
291 1 9.355461714624969 9.355458008868258 15.820427311194077 0 0 0
292 1 12.599048974193748 9.363893646741557 15.754224120894126 0 0 0
293 1 15.725820102682796 9.410642288171346 15.725820102682796 0 0 0
294 1 18.861838044343997 9.425479186757164 15.71546836876038 0 0 0
338 1 3.135158746537647 9.431318844465194 18.877742560291033 0 0 0
296 1 1.5707976492968996 1.570796162629461 20.44083405759195 0 0 0
297 1 3.138559390888656 0.0011870824836801358 18.868825236063824 0 0 0
298 1 4.714507086211722 1.5725736014824954 20.444771471593082 0 0 0
299 1 6.284683406983846 0.0003462558576610945 18.86994725906886 0 0 0
300 1 7.859715654164358 1.5705939255704964 20.44512361957054 0 0 0
337 1 22.003626316775446 9.430885819701 18.866846200793038 -1 0 0
302 1 11.00470949105829 1.5660061068391027 20.442360454061127 0 0 0
336 1 20.437676857650132 7.858049091507218 20.43767685765013 0 0 0
304 1 14.149258274187574 1.561732067492417 20.438361661166763 0 0 0
335 1 18.870114282537735 6.27921129293837 18.870114282537738 0 0 0
306 1 17.29334934255297 1.5610237566837755 20.43624882521923 0 0 0
334 1 17.294386790248232 7.855450393467813 20.43783884238107 0 0 0
308 1 20.437269811052627 1.5650035248809981 20.437269811052627 0 0 0
309 1 0.0011894972728830556 3.1385577146215997 18.868824517401144 0 0 0
310 1 1.5725766393153928 4.714503942088735 20.444770585649252 0 0 0
311 1 3.1426420594037694 3.1426384139265338 18.872673454988554 0 0 0
312 1 4.713950956614031 4.7139466521265785 20.452709401480973 0 0 0
313 1 6.285052651539171 3.139528069324136 18.87751473016708 0 0 0
314 1 7.859073583220271 4.7121641361272095 20.45609117230685 0 0 0
315 1 9.431324282579308 3.135153864048255 18.87774288791667 0 0 0
316 1 11.005412128516166 4.708557034994267 20.453722920248733 0 0 0
317 1 12.577962097778043 3.1296308513422066 18.87479277779152 0 0 0
318 1 14.15205344876944 4.705616759111168 20.44818041576671 0 0 0
319 1 15.724276127432855 3.1272610759650044 18.871162130026764 0 0 0
320 1 17.298305727383436 4.705846926279811 20.44379796885215 0 0 0
321 1 18.869377644200505 3.13062170048088 18.869377644200505 0 0 0
322 1 20.440684975857497 4.710668065953481 20.440684975857497 0 0 0
323 1 0.0003492551053697615 6.2846794323308 18.869945026014626 0 0 0
324 1 1.5705981516659389 7.859710777244483 20.44512177434048 0 0 0
325 1 3.1395326886357062 6.285047776945996 18.877513923959782 0 0 0
326 1 4.712168560099897 7.859068796587836 20.45609061536529 0 0 0
327 1 6.277063293722875 6.277057955979457 18.890815813884462 0 0 0
328 1 7.8552931412948706 7.855288552828745 20.46607775660541 0 0 0
329 1 9.427994932661312 6.27459740738863 18.892082631649313 0 0 0
330 1 11.004404917762523 7.85274306842932 20.459865269783627 0 0 0
331 1 12.579041788714713 6.270453499472977 18.886273445920324 0 0 0
332 1 14.150286087576477 7.852190368768064 20.44866690424017 0 0 0
333 1 15.72952704190927 6.270577865697121 18.880741016971157 0 0 0
588 1 4.697062645823955 11.004315628089396 17.312885113050925 0 0 0
589 1 7.833392503903462 11.000807072578096 17.331819697412357 0 0 0
590 1 10.982279305703122 10.982277220504196 17.298770294750273 0 0 0
591 1 14.122883881829468 10.987223946239489 17.26357260916367 0 0 0
636 1 1.5660102716479092 11.004703890584471 20.44235925604716 0 0 0
587 1 1.5591601960600998 11.003859471194598 17.29796122269978 0 0 0
49 1 18.866846200793038 9.430885819701002 22.003626316775446 0 0 -1
48 1 15.721539412792731 9.430562892340143 22.00491628046615 0 0 -1
592 1 17.274691210289983 10.99735158647331 17.274691210289983 0 0 0
593 1 20.42446471045817 11.000829175175383 17.28639458789117 0 0 0
640 1 14.141735671190217 10.998855501457031 20.426092349618337 0 0 0
641 1 17.28639458789117 11.000829175175383 20.42446471045817 0 0 0
642 1 20.43163902964468 11.002891598015065 20.43163902964468 0 0 0
639 1 11.000106550730402 11.00010367421232 20.444346246862537 0 0 0
638 1 7.852746824320043 11.00440149735851 20.45986444324264 0 0 0
462 1 18.870116075194755 18.870112089923392 6.279214074697314 0 0 0
461 1 15.729529839837586 18.88073876107197 6.2705796809882735 0 0 0
440 1 18.869378805254236 18.869375024512717 3.130623607025083 0 0 0
439 1 17.298307775313678 20.443795339093278 4.705849369650167 0 0 0
438 1 15.724278293326018 18.871159967632657 3.127263464252294 0 0 0
437 1 14.152055365534602 20.44817764125907 4.705619573456143 0 0 0
460 1 12.579042319737566 18.886270044382716 6.27045637043051 0 0 0
454 1 15.753534517655025 15.75353162566149 6.242328363238258 0 0 0
352 1 1.5723925715551021 14.15085897048178 1.5723925715551026 0 0 0
353 1 3.141011037689772 12.578677900518205 0.007810866103030146 0 0 0
354 1 4.716518085683448 14.152495199890806 1.579726406276899 0 0 0
355 1 6.285380356274775 12.579496512234174 0.014639787437219852 0 0 0
356 1 7.861799468441501 14.152789821076123 1.5784327481214966 0 0 0
357 1 9.43160075092689 12.577350694990047 0.008482802783158229 0 0 0
358 1 11.005970005542563 14.15171286698702 1.5653130999878526 0 0 0
453 1 12.582534569305817 15.749932172473708 6.251515176928985 0 0 0
360 1 14.149341666568512 14.14933803424879 1.5511934519550252 0 0 0
452 1 9.421885149462822 15.754598513655655 6.259436313471742 0 0 0
362 1 17.294392018856634 14.148435687965764 1.5519648501802794 0 0 0
451 1 6.283301577690845 15.736792175495916 6.283301577690844 0 0 0
364 1 20.438362087518644 14.149253170807839 1.561735654235853 0 0 0
450 1 3.1455017663861455 15.727925618566104 6.288971576627806 0 0 0
366 1 1.5698079706079904 17.295700366547308 1.569807970607991 0 0 0
367 1 3.138235934770648 15.723655241448432 0.003194875748866628 0 0 0
368 1 4.713412993363477 17.298682140258652 1.5734311788402204 0 0 0
369 1 6.2835916737665265 15.72491109053754 0.006010640940181915 0 0 0
370 1 7.858459889830894 17.29977346764199 1.5677765408695539 0 0 0
449 1 0.006010640940181697 15.724911090537542 6.2835916737665265 0 0 0
372 1 11.00386373850075 17.297958275183184 1.5591597564749793 0 0 0
448 1 18.8862727504609 12.579038989730561 6.270457330379447 0 0 0
374 1 14.14844072472166 17.294388329799677 1.5519646501243296 0 0 0
447 1 15.74993436986135 12.582531039032572 6.251515320618694 0 0 0
376 1 17.29310077645252 17.293096384899915 1.5519350245162997 0 0 0
446 1 12.601048006779498 12.601044988261634 6.284564746293556 0 0 0
378 1 20.4362498467465 17.29334606673069 1.5610257580988673 0 0 0
445 1 9.460451155171384 12.596114692860771 6.31976790548945 0 0 0
380 1 1.570797362588612 20.44083231516296 1.5707973625886122 0 0 0
381 1 3.1385590314957628 18.86882214156417 0.0011895291209549248 0 0 0
382 1 4.714505679956298 20.44476822012144 1.5725760597339395 0 0 0
383 1 6.284681966866269 18.869943038555483 0.0003498526586617654 0 0 0
384 1 7.8597139811795005 20.44511932815196 1.5705985566072511 0 0 0
444 1 6.308651830434277 12.585999509059647 6.308651830434277 0 0 0
386 1 11.004708900385628 20.442356438670704 1.5660111746600616 0 0 0
443 1 3.1588917190498123 12.582524317426307 6.296950371820918 0 0 0
388 1 14.149259034666935 20.438358867764997 1.5617356662530788 0 0 0
442 1 0.014639787437220046 12.579496512234174 6.285380356274775 0 0 0
390 1 17.293350510353115 20.436246573122872 1.5610256157763382 0 0 0
441 1 20.440686031068687 20.440682938774504 4.71066986288836 0 0 0
392 1 20.437270071967507 20.437267651204206 1.56500455992633 0 0 0
459 1 9.427993610497637 18.892078702424836 6.274600704313271 0 0 0
458 1 6.277061617743265 18.890811526916313 6.277061617743267 0 0 0
457 1 3.139531367443129 18.877510850248868 6.285050023650619 0 0 0
396 1 11.023132106034875 11.02312936509762 4.745798852547527 0 0 0
436 1 12.577963030821968 18.874790239075757 3.12963449531533 0 0 0
456 1 0.0003498526586610852 18.869943038555487 6.28468196686627 0 0 0
455 1 18.880742334498336 15.729525259402557 6.270580504911038 0 0 0
400 1 0.007810866103029574 12.578677900518205 3.1410110376897715 0 0 0
401 1 1.579726406276899 14.152495199890806 4.716518085683448 0 0 0
402 1 3.151737948352634 12.580481591125709 3.1517379483526344 0 0 0
403 1 4.723472772259659 14.154363672326363 4.72347277225966 0 0 0
404 1 6.296950371820918 12.582524317426305 3.1588917190498123 0 0 0
405 1 7.8678661008979445 14.157871118418619 4.721508243941092 0 0 0
406 1 9.44157562558736 12.584464980844935 3.1572478103412935 0 0 0
407 1 11.011255184263263 14.164621864042445 4.7061381899185895 0 0 0
408 1 12.583200769463575 12.583197710721972 3.138997705778111 0 0 0
409 1 14.16281145463747 14.162807839075212 4.6813165438574496 0 0 0
410 1 15.730576548419053 12.5789301296501 3.123474507694132 0 0 0
411 1 17.30872812356285 14.155354231017254 4.691268350580815 0 0 0
412 1 18.87479336047866 12.577957710061082 3.129635005577791 0 0 0
413 1 20.448181193229203 14.152049960386032 4.705619616834844 0 0 0
414 1 0.003194875748865826 15.723655241448432 3.1382359347706483 0 0 0
415 1 1.5734311788402195 17.298682140258652 4.713412993363477 0 0 0
416 1 3.1456741759109 15.72533001874103 3.145674175910901 0 0 0
417 1 4.713227498782717 17.304166531404178 4.713227498782716 0 0 0
418 1 6.288971576627807 15.727925618566102 3.1455017663861464 0 0 0
419 1 7.853825349036654 17.31278850665987 4.702589487946313 0 0 0
420 1 9.433062106613535 15.731152525924315 3.1346716258668814 0 0 0
421 1 11.004318860433344 17.31288254201829 4.697060902824383 0 0 0
422 1 12.578934442436864 15.73057302135205 3.1234728639235345 0 0 0
423 1 14.155359111466929 17.30872472795809 4.691267791724759 0 0 0
424 1 15.72803817143873 15.728033700276423 3.117277261454815 0 0 0
425 1 17.306280422217394 17.306276165738396 4.692546770179348 0 0 0
426 1 18.87116383540646 15.724272928255456 3.1272635978081893 0 0 0
427 1 20.443798673080668 17.29830339243861 4.705848972135175 0 0 0
428 1 0.0011895291209543838 18.86882214156417 3.1385590314957628 0 0 0
429 1 1.5725760597339389 20.444768220121443 4.714505679956298 0 0 0
430 1 3.142640665629716 18.872670227762004 3.1426406656297154 0 0 0
431 1 4.71394900866184 20.452706306937248 4.71394900866184 0 0 0
432 1 6.2850500236506175 18.877510850248868 3.1395313674431287 0 0 0
433 1 7.859070984620624 20.45608767132487 4.71216739255305 0 0 0