LAMMPS data file via write_data, version 2 Aug 2023, timestep = 31, units = metal

686 atoms
3 atom types

0 22.009546999999998 xlo xhi
0 22.009546999999998 ylo yhi
0 22.009546999999998 zlo zhi

Masses

1 183.84
2 1.008
3 4.0026

Atoms # atomic

1 1 22.009056450326188 0.00012533175855648998 22.00944105199456 -1 0 -1
2 1 1.5719776283847418 1.5725935029709979 1.5722090307904915 0 0 0
3 1 3.14434269418703 0.00035256252438138256 22.00925981706939 0 0 -1
4 1 4.716543464401516 1.5728008947732506 1.5720099261461844 0 0 0
5 1 6.288671886941282 0.0006093196134798361 22.009189444204395 0 0 -1
6 1 7.860628510490822 1.5728861813684478 1.57193936622813 0 0 0
7 1 9.432594659750007 0.0006404486350897155 22.009291696338984 0 0 -1
8 1 11.004449097303784 1.572794248064903 1.5720666443770828 0 0 0
9 1 12.576384026996225 0.0005096708647205949 22.009507584018074 0 0 -1
10 1 14.148286820511325 1.572608868390529 1.5722590985288312 0 0 0
11 1 15.720259130493822 0.0003074301100558777 9.09818301619801e-05 0 0 0
12 1 17.292285806302523 1.5724562625776644 1.572379614234461 0 0 0
13 1 18.864448014446673 0.00012274383077403073 5.8959850585541206e-05 0 0 0
14 1 20.43667889506916 1.5724472250928683 1.572365051837682 0 0 0
15 1 22.009202732264043 3.1449710828320714 22.00928499191055 -1 0 -1
16 1 1.571980228884516 4.717201955275227 1.5720440821420352 0 0 0
17 1 3.1446029195353193 3.145322199078434 22.00896443395941 0 0 -1
18 1 4.716716255764806 4.717603520401685 1.5717945710498515 0 0 0
19 1 6.288888502667416 3.1456602778974974 22.008588534842495 0 0 -1
20 1 7.860754001018704 4.7177940533584115 1.5714198128432395 0 0 0
21 1 9.432739649644793 3.1457574450315815 22.008512140038995 0 0 -1
22 1 11.004456723140343 4.717751342473768 1.57147972775985 0 0 0
23 1 12.576411889416832 3.145596526570517 22.008746000517036 0 0 -1
24 1 14.148138577039573 4.717548542713421 1.571874888785199 0 0 0
25 1 15.720230537514736 3.1453440077682964 22.009049557356672 0 0 -1
26 1 17.292102931723555 4.717364425294056 1.5723073628939677 0 0 0
27 1 18.86446619975054 3.145067306989569 22.009320923699182 0 0 -1
28 1 20.4365826854856 4.7171837797129115 1.5723290718172551 0 0 0
29 1 22.009193722366323 6.289364194826298 22.00927039293592 -1 0 -1
30 1 1.5717955704561124 7.861390858594302 1.5720120358278702 0 0 0
31 1 3.1446568847125187 6.289689849246971 22.008644032749277 0 0 -1
32 1 4.7166266729611275 7.8617193605352815 1.571485491944444 0 0 0
33 1 6.2890141044473244 6.290074987015678 22.007914035001843 0 0 -1
34 1 7.86038953408504 7.8615885774131975 1.5711531146927313 0 0 0
35 1 9.432958290443587 6.290415063155629 22.007613666954057 0 0 -1
36 1 11.004385769374512 7.86188859846454 1.5713979684909472 0 0 0
37 1 12.576363454163305 6.290268005387657 22.008032621639245 0 0 -1
38 1 14.148139111847984 7.861557947607142 1.5720761444509208 0 0 0
39 1 15.720076594680028 6.289829491226121 22.008751544298168 0 0 -1
40 1 17.291820526833476 7.861573415809984 1.5728983619026138 0 0 0
41 1 18.86428557124495 6.289547083700905 22.0093425906225 0 0 -1
42 1 20.436306002693804 7.861419460378835 1.5726004130975928 0 0 0
43 1 22.0090411367183 9.433363187109176 22.009390897402508 -1 0 -1
44 1 1.5715933505952626 11.005265955859908 1.5721424485853617 0 0 0
45 1 3.1445693807004744 9.433592492902237 22.008572472123404 0 0 -1
46 1 4.716492789757329 11.005407348452596 1.5715849710399432 0 0 0
47 1 6.289186408314084 9.434023794832713 22.007626305811357 0 0 -1
48 1 7.860603403735876 11.005537474886914 1.5714511324316836 0 0 0
49 1 9.432476830621042 9.433724898177147 22.00758625587342 0 0 -1
50 1 11.004018560008186 11.005304259149446 1.5713300409789066 0 0 0
51 1 12.57643414821994 9.433836963054075 22.00817197558799 0 0 -1
52 1 14.1478130616726 11.005215868790785 1.5734778897573596 0 0 0
53 1 15.720092061770837 9.433510916194543 2.6724169061475818e-05 0 0 0
54 1 17.291382012127904 11.00528655519918 1.5736172900398089 0 0 0
55 1 18.864101458673577 9.433511441749053 0.00022803828958423567 0 0 0
56 1 20.436053494373525 11.005238101466933 1.5729039845865669 0 0 0
57 1 22.00885576456901 12.577200893500299 3.637782415851281e-05 -1 0 0
58 1 1.5714625688921575 14.149055311007643 1.5723583753695465 0 0 0
59 1 3.144395069382557 12.577273951981148 22.00880043005504 0 0 -1
60 1 4.716392860738336 14.149044511187949 1.5719765537101682 0 0 0
61 1 6.289037373875534 12.577400030241362 22.008057321388808 0 0 -1
62 1 7.860349811580062 14.14925687712008 1.572130126377757 0 0 0
63 1 9.43256005895784 12.577667826673236 22.008162965466735 0 0 -1
64 1 11.00398220694894 14.149089957727657 1.573486997622509 0 0 0
65 1 12.576345758172618 12.577631468362439 0.0007728483100946548 0 0 0
66 1 14.147925120466072 14.149173177509613 1.5740636762203781 0 0 0
67 1 15.719761405134149 12.57726424922633 0.0007049210932046736 0 0 0
68 1 17.291234943310464 14.14869169559152 1.5740362979533797 0 0 0
69 1 18.863898658792852 12.577193277662207 0.0006232298147233918 0 0 0
70 1 20.435892568544652 14.148910315119842 1.5731378855369842 0 0 0
71 1 22.008763801865417 15.72102146158596 0.00016370250462472428 -1 0 0
72 1 1.5714936673312405 17.292978065260694 1.5724606711834495 0 0 0
73 1 3.14427729395032 15.721026977803275 22.009101814782287 0 0 -1
74 1 4.716403711849697 17.29294298615984 1.5723540372999125 0 0 0
75 1 6.288763509774195 15.721082193715661 22.00873691401899 0 0 -1
76 1 7.8605678223720545 17.2928864928143 1.5729131715789442 0 0 0
77 1 9.432393137739151 15.72130021820592 22.00951989901279 0 0 -1
78 1 11.004249992153927 17.29261263873311 1.5735927122618985 0 0 0
79 1 12.57611253411411 15.721046617325939 0.0006518354000657436 0 0 0
80 1 14.147626209553508 17.29246358855107 1.5740237042250267 0 0 0
81 1 15.720061413666835 15.721260463960723 0.0009498429680503578 0 0 0
82 1 17.291575002827233 17.29263586645673 1.5737359873207801 0 0 0
83 1 18.863855926241737 15.720895975227277 0.0006831915176950687 0 0 0
84 1 20.435989709615235 17.292761444229633 1.573061526136973 0 0 0
85 1 22.008849068793104 18.865106493387685 9.316030382541575e-05 -1 0 0
86 1 1.5717504045652115 20.437307248323123 1.5723902978749043 0 0 0
87 1 3.1442571508699193 18.865179001690738 22.00933409331053 0 0 -1
88 1 4.716470969587377 20.43739281158659 1.572316031683083 0 0 0
89 1 6.288706990152619 18.86524628826303 22.009296083479775 0 0 -1
90 1 7.860623012071621 20.437372692703832 1.5725482871395862 0 0 0
91 1 9.432605483117962 18.86525716183665 0.00012652444252329065 0 0 0
92 1 11.004376046234544 20.437254942414 1.5728496259680569 0 0 0
93 1 12.576242644624015 18.865157228710746 0.0005180555426456529 0 0 0
94 1 14.14805750703771 20.437080618178104 1.5730775526504794 0 0 0
95 1 15.719930621266004 18.865023320473796 0.0006175251040116873 0 0 0
96 1 17.29196014301917 20.436993080793375 1.5730060060224351 0 0 0
97 1 18.86404644985563 18.8649337099661 0.0003084680867362171 0 0 0
98 1 20.4363277803205 20.437047022418625 1.5726856375323874 0 0 0
99 1 22.00875472047227 22.009462123723246 3.144758526249378 -1 -1 0
100 1 1.5717549271401108 1.572578447282381 4.7168076179283895 0 0 0
101 1 3.144205163029977 0.00015575387739181484 3.1446728304881244 0 0 0
102 1 4.716562340099073 1.572918561786503 4.716913199603324 0 0 0
103 1 6.288597370209888 0.00012209672293710038 3.144720895525589 0 0 0
104 1 7.8606227072592745 1.5726824825807186 4.716935057606748 0 0 0
105 1 9.432489045447651 22.00950950706313 3.1448929951954674 0 -1 0
106 1 11.004305040150575 1.5723449249214492 4.717007098588633 0 0 0
107 1 12.576190021639691 22.009286162591685 3.1450983940452955 0 -1 0
108 1 14.14794927161028 1.5721202244827892 4.71715131770605 0 0 0
109 1 15.719942338208588 22.009120809791 3.1452102371185533 0 -1 0
110 1 17.291864179904888 1.572160633184156 4.717182875519044 0 0 0
111 1 18.864052323168288 22.009216894106014 3.1450775160223934 0 -1 0
112 1 20.436346946205816 1.5722385178938552 4.716990243022703 0 0 0
113 1 22.00895085945372 3.1449080501752875 3.1446671451629147 -1 0 0
114 1 1.5719377190020043 4.7174215843469005 4.716909679481361 0 0 0
115 1 3.1444656989866377 3.145232580621544 3.1446116620888573 0 0 0
116 1 4.7173532929968385 4.718375496599677 4.717507858920967 0 0 0
117 1 6.288675731801826 3.145279856650194 3.144357189620346 0 0 0
118 1 7.860840780815176 4.71802797819341 4.716965506844869 0 0 0
119 1 9.432515505973484 3.1452206984551916 3.1442766363917563 0 0 0
120 1 11.004264569656332 4.717826960395934 4.716925703058703 0 0 0
121 1 12.576220415230864 3.1450302471202196 3.144443838691222 0 0 0
122 1 14.147650166523935 4.7176460857190685 4.7172549585007975 0 0 0
123 1 15.720049472679241 3.1449030800814026 3.144680149987984 0 0 0
124 1 17.291195295758225 4.717905385651039 4.717715960436217 0 0 0
125 1 18.864136297021258 3.144939810507275 3.144849460151851 0 0 0
126 1 20.436048494853633 4.717413356657316 4.71724117658088 0 0 0
127 1 22.008677125699908 6.289369813252533 3.1447380578568755 -1 0 0
128 1 1.571471914789771 7.861556978630434 4.716986022084486 0 0 0
129 1 3.144245253334504 6.289525380301128 3.1444050172042646 0 0 0
130 1 4.716807330565648 7.861881580570298 4.717061788318704 0 0 0
131 1 6.288789716847827 6.289885732615274 3.1446047626289033 0 0 0
132 1 7.8608351639525225 7.862036737422338 4.718001224932908 0 0 0
133 1 9.432600908285469 6.289969195439563 3.1444164159922097 0 0 0
134 1 11.004141626546515 7.862919691333893 4.718533380611914 0 0 0
135 1 12.575937339786448 6.2898545800926895 3.14472842764019 0 0 0
136 1 14.147125452793745 7.8618322727134675 4.718869596278277 0 0 0
137 1 15.719629942517027 6.2896958730268855 3.145256363836909 0 0 0
138 1 17.290198913005412 7.862331412465937 4.7190647739456075 0 0 0
139 1 18.86373057724557 6.289608580894088 3.145284333371392 0 0 0
140 1 20.435340012611885 7.8617589628450775 4.717735427546179 0 0 0
141 1 22.00830061009143 9.433343995725538 3.1449343159273244 -1 0 0
142 1 1.571014152334001 11.005239648860737 4.717133182769723 0 0 0
143 1 3.1439844603352967 9.433417111950657 3.1443981986319027 0 0 0
144 1 4.716502097187319 11.00528366651746 4.717116933357442 0 0 0
145 1 6.288707551157341 9.433682586891289 3.1445264599426563 0 0 0
146 1 7.861587791286186 11.005336548786463 4.7186298327854255 0 0 0
147 1 9.43161155455015 9.432860831433837 3.144029097988836 0 0 0
148 1 11.003143030298412 11.004472016880454 4.712920439134446 0 0 0
149 1 12.576278088066779 9.433020772053696 3.144948573424198 0 0 0
150 1 14.145500954557143 11.004548137389175 4.7218473689276745 0 0 0
151 1 15.718979282358683 9.43358825636087 3.146732591672672 0 0 0
152 1 17.28908832624604 11.005317561295481 4.720568657594233 0 0 0
153 1 18.86311681015811 9.433571943856753 3.1459802277150044 0 0 0
154 1 20.434770928745927 11.005218374069887 4.718195936037069 0 0 0
155 1 22.00804062347837 12.577036483816832 3.1451847161053497 -1 0 0
156 1 1.5708279680822435 14.148876492211741 4.717312163203736 0 0 0
157 1 3.1437777874941606 12.577100270506959 3.1446016991423313 0 0 0
158 1 4.716361255941131 14.148637644518578 4.717441652658571 0 0 0
159 1 6.2885764238138915 12.57697405799684 3.1448863248116274 0 0 0
160 1 7.860560527793295 14.148298449138222 4.719009537013741 0 0 0
161 1 9.431726890789017 12.577504598519372 3.1450231204853654 0 0 0
162 1 11.003243659976214 14.146802118397288 4.721916647673089 0 0 0
163 1 12.575918002299817 12.577213099559366 3.1459188206300497 0 0 0
164 1 14.14654633425293 14.147824489371805 4.721477499963544 0 0 0
165 1 15.71836178381039 12.576459660284403 3.1479314946424033 0 0 0
166 1 17.28872195162438 14.147113741929406 4.721049242059844 0 0 0
167 1 18.862763290120512 12.576795982872214 3.1464301476097156 0 0 0
168 1 20.434457182714574 14.148384801853744 4.718447420387294 0 0 0
169 1 22.00799537947191 15.720756838790967 3.1453092111516012 -1 0 0
170 1 1.571047137618107 17.29277425087689 4.717317867458236 0 0 0
171 1 3.1437729630509206 15.720886866837045 3.14481958282733 0 0 0
172 1 4.716824678065226 17.29214795634118 4.717831559714513 0 0 0
173 1 6.288557239853022 15.720631746324843 3.145373420480531 0 0 0
174 1 7.8612686665510925 17.291317848072495 4.719174102173839 0 0 0
175 1 9.432423622849837 15.720189742568458 3.1467969517281995 0 0 0
176 1 11.004209707193773 17.290395398178003 4.720588557606838 0 0 0
177 1 12.575303995410048 15.719632819829789 3.1479349161154717 0 0 0
178 1 14.146007041740402 17.289965281559976 4.721070886557758 0 0 0
179 1 15.718905834334189 15.720059062929698 3.1475450398331457 0 0 0
180 1 17.28942815495842 17.290518616121688 4.720308732924406 0 0 0
181 1 18.862763607985507 15.72013782543536 3.146537677592637 0 0 0
182 1 20.434803236871073 17.29209334570877 4.718233209804368 0 0 0
183 1 22.00831817876945 18.86481760039854 3.145137746400027 -1 0 0
184 1 1.5713516072212077 20.437194793071388 4.717047701856299 0 0 0
185 1 3.1440480416669456 18.864911219371812 3.1449132158989013 0 0 0
186 1 4.7165320229656835 20.436987794892165 4.7172812770246955 0 0 0
187 1 6.288698578579202 18.86469237115062 3.1453279032814634 0 0 0
188 1 7.8608109610101335 20.436498103302895 4.717746305410911 0 0 0
189 1 9.432606490976278 18.864299852133115 3.145991705286928 0 0 0
190 1 11.004259686622179 20.43608327044461 4.7181603749695284 0 0 0
191 1 12.575838021707678 18.864009572776983 3.1464198889485644 0 0 0
192 1 14.147419670759824 20.43571432159918 4.718407046587151 0 0 0
193 1 15.71917447783204 18.86388953412369 3.1465403727628867 0 0 0
194 1 17.29110346091377 20.435897801954308 4.718185125866929 0 0 0
195 1 18.863233655404734 18.8641806610899 3.146023417925415 0 0 0
196 1 20.435601124939055 20.436532923952505 4.7176051734245705 0 0 0
197 1 22.008447814476213 22.00945185929008 6.2891085156443225 -1 -1 0
198 1 1.5716878675134798 1.5728067743907905 7.860976525577821 0 0 0
199 1 3.1439790888210277 0.00031188184228670085 6.28901113762066 0 0 0
200 1 4.716604211040742 1.5733906696721185 7.861097843176864 0 0 0
201 1 6.28852864947226 9.366454739311428e-05 6.289165376277612 0 0 0
202 1 7.860437517868983 1.57324451398405 7.860863339951387 0 0 0
203 1 9.432558780416842 22.00894360112722 6.289582049878755 0 -1 0
204 1 11.004248006718436 1.5725482188956101 7.861162496133514 0 0 0
205 1 12.575906384940305 22.00844384540674 6.28979029000443 0 -1 0
206 1 14.14791724018247 1.5719053198469868 7.8610580020536505 0 0 0
207 1 15.71947323669215 22.00831769223254 6.289709272555665 0 -1 0
208 1 17.291751290985715 1.5718154181457162 7.861126769850438 0 0 0
209 1 18.863545252290905 22.008673586135235 6.289495667685511 0 -1 0
210 1 20.436187124948834 1.5722323246918593 7.86110274419812 0 0 0
211 1 22.008853754850442 3.144951775276766 6.288987337317058 -1 0 0
212 1 1.572167105707692 4.717753388199579 7.861088306600713 0 0 0
213 1 3.1444252666423345 3.14546579723829 6.289026462238323 0 0 0
214 1 4.717644492143107 4.71891015629427 7.861466502524791 0 0 0
215 1 6.289002017482885 3.1461874022770173 6.289237837522153 0 0 0
216 1 7.8616395732798745 4.720336356621658 7.861480123795576 0 0 0
217 1 9.432660498335117 3.1457857372907365 6.289135056150311 0 0 0
218 1 11.004325500215604 4.720036488200339 7.861995481541832 0 0 0
219 1 12.575876193644435 3.1453456771701513 6.2892080704174695 0 0 0
220 1 14.147325211247493 4.718720868820048 7.861332248056064 0 0 0
221 1 15.719622493935315 3.145129206421831 6.289257074373132 0 0 0
222 1 17.291383787479784 4.717714761444429 7.861301846781171 0 0 0
223 1 18.8639581853335 3.144833637126052 6.2891446705739495 0 0 0
224 1 20.436225846341394 4.7173533065865785 7.861195978207572 0 0 0
225 1 22.00846973244197 6.289525825730204 6.289149430886913 -1 0 0
226 1 1.5718554334478698 7.861613631644845 7.860914764003569 0 0 0
227 1 3.1449674334370195 6.290089401147957 6.289269587542888 0 0 0
228 1 4.718938471923714 7.8628862471727565 7.861574441915072 0 0 0
229 1 6.291772605321168 6.292980407398316 6.291829461632498 0 0 0
230 1 7.870783202400907 7.872170680112248 7.870255111205669 0 0 0
231 1 9.433352932939975 6.291629040503247 6.290297310760575 0 0 0
232 1 11.003931718712483 7.869848782387079 7.867798911949456 0 0 0
233 1 12.574859228149272 6.291325684828602 6.290603734157438 0 0 0
234 1 14.139218410581591 7.868887971702514 7.869187896823175 0 0 0
235 1 15.717068790789796 6.291937822381899 6.291774957874188 0 0 0
236 1 17.287046670644468 7.864176134215948 7.864601807599093 0 0 0
237 1 18.862438722519958 6.290400958750864 6.29032874809371 0 0 0
238 1 20.435041106381107 7.86163749387526 7.8615479307774825 0 0 0
239 1 22.007584267247807 9.433600209749155 6.28962950566566 -1 0 0
240 1 1.5710354634739507 11.005406279075743 7.861295510803998 0 0 0
241 1 3.144412216606651 9.433738108922991 6.28928345740122 0 0 0
242 1 4.718551931737936 11.005561944728298 7.862182352080494 0 0 0
243 1 6.290256929902008 9.434525148567522 6.290422923599163 0 0 0
244 1 7.868411486080956 11.005235232042068 7.867929672127092 0 0 0
245 1 9.43109399609672 9.43243105353977 6.292630156979283 0 0 0
246 1 11.001809682435571 11.003047073771265 7.830326088710753 0 0 0
247 1 12.576370840001518 9.433024472348524 6.294002205293265 0 0 0
248 1 14.133266162399769 11.002946190409096 7.882159953789693 0 0 0
249 1 15.715003891498784 9.435312844751392 6.2951046033618505 0 0 0
250 1 17.28286322229567 11.006323272163728 7.868580286950039 0 0 0
251 1 18.86081280455313 9.434344762676602 6.291640982891527 0 0 0
252 1 20.4331648889704 11.0054943024861 7.862710711964436 0 0 0
253 1 22.007027674750177 12.576945798953785 6.289881569696919 -1 0 0
254 1 1.5704567915615792 14.149074847721346 7.861208010570913 0 0 0
255 1 3.143933518722299 12.576937762810967 6.289395314695092 0 0 0
256 1 4.717330943181914 14.148502581995542 7.861510501541268 0 0 0
257 1 6.289933855578999 12.576023742435673 6.29078782655274 0 0 0
258 1 7.867586170218538 14.140433226598796 7.869371610364924 0 0 0
259 1 9.43167461191702 12.577671126445527 6.294089215952991 0 0 0
260 1 11.001740806133089 14.13442748248475 7.882315698308262 0 0 0
261 1 12.575321085721638 12.576655379554825 6.29202547674727 0 0 0
262 1 14.137380033691317 14.138713224127239 7.877248563280309 0 0 0
263 1 15.712306854284016 12.5740033152253 6.298093062937763 0 0 0
264 1 17.283722258997386 14.144845131066978 7.867308399678586 0 0 0
265 1 18.859952132281677 12.576134328877375 6.292254118332143 0 0 0
266 1 20.43288830286195 14.148253116344097 7.862610300169376 0 0 0
267 1 22.00702237061008 15.720560377532998 6.289818064353955 -1 0 0
268 1 1.570541386740721 17.29286761737633 7.861266347635246 0 0 0
269 1 3.14385664209503 15.720661549054677 6.289423913519806 0 0 0
270 1 4.7165863742606 17.292473160601872 7.861448531933196 0 0 0
271 1 6.290734825505181 15.718182704281823 6.291967649037649 0 0 0
272 1 7.863064176519712 17.288191684032334 7.864789478666157 0 0 0
273 1 9.434117359632928 15.716204526652389 6.295271418089026 0 0 0
274 1 11.005079454774702 17.284099497403247 7.868676157816761 0 0 0
275 1 12.572687207328432 15.713625744055047 6.298170174181696 0 0 0
276 1 14.143445061111732 17.285076939217383 7.8673590722386635 0 0 0
277 1 15.714315874502724 15.715609673640213 6.296528028616658 0 0 0
278 1 17.28571664033043 17.28704812829958 7.866493585919121 0 0 0
279 1 18.860362491191083 15.718809357786256 6.292050417217473 0 0 0
280 1 20.433520137456725 17.29161362518653 7.862446915855719 0 0 0
281 1 22.007551470562028 18.864599562896665 6.289597432227238 -1 0 0
282 1 1.5711120928432847 20.437302278564147 7.861136921456561 0 0 0
283 1 3.1437957459737316 18.864943453116695 6.289238402007749 0 0 0
284 1 4.7162852637188015 20.4373640793903 7.861207781955144 0 0 0
285 1 6.2893999448272435 18.86350780323585 6.290413464074273 0 0 0
286 1 7.860545770422881 20.436342745553393 7.861544257000345 0 0 0
287 1 9.433286359433586 18.862097378422618 6.291651976037041 0 0 0
288 1 11.004325439825854 20.434601808707146 7.862648224574485 0 0 0
289 1 12.5749851010271 18.86130641381802 6.292242007122918 0 0 0
290 1 14.14701806956172 20.434320318869386 7.862560843166899 0 0 0
291 1 15.717645934221492 18.86160846664769 6.292046919168124 0 0 0
292 1 17.290376199882623 20.43487142277067 7.862372988486246 0 0 0
293 1 18.86160934296939 18.862773008952026 6.291198539763534 0 0 0
294 1 20.435248249618677 20.436464430204 7.86158817239473 0 0 0
295 1 22.008387216368874 3.5270947336527745e-05 9.433033768981122 -1 0 0
296 1 1.571840741963805 1.5730596703936939 11.004832539623525 0 0 0
297 1 3.14395841907289 0.0006436523419203891 9.432952821994357 0 0 0
298 1 4.716783425767578 1.5739150988544786 11.004766443719816 0 0 0
299 1 6.288607954462804 0.0007761404042371761 9.43309317995428 0 0 0
300 1 7.86098438300799 1.5745056523636622 11.004742038679801 0 0 0
301 1 9.432090160140028 0.00017186219768340806 9.43287034692949 0 0 0
302 1 11.004193931342847 1.5730523097441431 11.00451822928902 0 0 0
303 1 12.576020870900349 22.008411722150633 9.43323779527776 0 -1 0
304 1 14.147963824172162 1.5722988884220754 11.004633810268581 0 0 0
305 1 15.719397597248731 22.008068469565767 9.433304352538926 0 -1 0
306 1 17.291672571503963 1.572087156175094 11.004967662027099 0 0 0
307 1 18.86337543490684 22.008729309877367 9.433327097697104 0 -1 0
308 1 20.436303920033655 1.5724228774428028 11.004924851092245 0 0 0
309 1 22.00897060956056 3.145130041473035 9.432963240114523 -1 0 0
310 1 1.5725391022775783 4.718064524135356 11.004771188862698 0 0 0
311 1 3.144664982855542 3.1459511891676004 9.432954099805077 0 0 0
312 1 4.718327708978548 4.719760685282419 11.004637119026226 0 0 0
313 1 6.28957998050315 3.1472653858395607 9.433195104452242 0 0 0
314 1 7.8638349539394525 4.723109413469823 11.004597071840784 0 0 0
315 1 9.43224941815508 3.1466665571038117 9.432202453777812 0 0 0
316 1 11.004324041984535 4.71639801225824 11.003374021057908 0 0 0
317 1 12.576377163353461 3.1454602593849565 9.432343180229037 0 0 0
318 1 14.147539869590034 4.718599389829032 11.003605707715307 0 0 0
319 1 15.719877674531329 3.144887315547176 9.43274840064149 0 0 0
320 1 17.29134505050341 4.718106845645313 11.005017460680877 0 0 0
321 1 18.86392455948755 3.1448891329029673 9.433082642009907 0 0 0
322 1 20.43648379600046 4.717545632297672 11.004934785636005 0 0 0
323 1 22.00896815271889 6.289804855518035 9.433114440520864 -1 0 0
324 1 1.572986419049226 7.862297799536873 11.004825552706185 0 0 0
325 1 3.145841512700855 6.290909318853836 9.433233263032816 0 0 0
326 1 4.721572968301458 7.8652532398587365 11.004706716788325 0 0 0
327 1 6.292498623900155 6.293917749847683 9.434287681137983 0 0 0
328 1 7.8745749876972715 7.8760255600681255 11.004952317035382 0 0 0
329 1 9.433096371079783 6.297109462155978 9.431799646542053 0 0 0
330 1 11.005659866224834 7.841017195133334 11.001153763235475 0 0 0
331 1 12.576579612181998 6.294724422659308 9.432111861744408 0 0 0
332 1 14.144394971702779 7.867010524428981 11.00050547958715 0 0 0
333 1 15.718637823647965 6.2908357373688295 9.433267813033867 0 0 0
334 1 17.288701487933267 7.864001285160775 11.005895797258285 0 0 0
335 1 18.863075404465313 6.2900308111186 9.433522034585232 0 0 0
336 1 20.435773639972535 7.861979685516445 11.005263170237308 0 0 0
337 1 22.008221202945403 9.433326767090241 9.432960209215256 -1 0 0
338 1 1.5714546583242668 11.005499470184754 11.004660985125003 0 0 0
339 1 3.1451200904576515 9.433547136309237 9.432352918467547 0 0 0
340 1 4.714885326206731 11.00572198758563 11.003541516224532 0 0 0
341 1 6.295586668794918 9.434494694412276 9.431892883977019 0 0 0
342 1 7.839705520274534 11.006898500158641 11.001177006937656 0 0 0
343 1 9.460196980535239 9.461531317414444 9.45555267820558 0 0 0
344 1 20.436417372107336 20.437184282584113 20.437038399563825 0 0 0
345 1 12.554413156010517 9.45297473002687 9.449867298306543 0 0 0
346 1 14.17428502576438 11.012298454941286 11.020078790643874 0 0 0
347 1 15.705416201067807 9.437689638516417 9.441447694947056 0 0 0
348 1 17.292802073398445 11.003763879470407 11.00563923387799 0 0 0
349 1 18.861238760595718 9.43306020750571 9.43376107120684 0 0 0
350 1 20.435897488634243 11.005036532674078 11.005102118207718 0 0 0
351 1 22.00685214700067 12.577274073279355 9.433352013759995 -1 0 0
352 1 1.570777119374611 14.149241800560583 11.004763714946762 0 0 0
353 1 3.1439416161033242 12.577643394665134 9.432529168647221 0 0 0
354 1 4.717235950448274 14.148807498640062 11.003782397791479 0 0 0
355 1 6.293332635105669 12.577862518054053 9.432299123624599 0 0 0
356 1 7.86607878507359 14.14534978986198 11.000641664472113 0 0 0
357 1 9.451813982055022 12.555538752650222 9.4499259505689 0 0 0
358 1 11.01145706035167 14.174983535378567 11.02024059253774 0 0 0
359 1 12.555386449349148 12.55639572692356 9.409521892613457 0 0 0
360 1 14.108831182050633 14.109930266107396 11.032452611282284 0 0 0
361 1 15.69507254059457 12.575535684757128 9.447629988965836 0 0 0
362 1 17.280201401484426 14.145352420935511 11.006244946727154 0 0 0
363 1 18.857831428475986 12.577045086771806 9.435683267842954 0 0 0
364 1 20.433200092744432 14.148624138811783 11.00528435871161 0 0 0
365 1 22.006588263521767 15.720656833311654 9.433421220692656 -1 0 0
366 1 1.5706949524055074 17.29290188551991 11.005024048736464 0 0 0
367 1 3.14354339989834 15.721052788801172 9.4329010049506 0 0 0
368 1 4.716838482542402 17.292594130920783 11.005089459320232 0 0 0
369 1 6.289653928301393 15.719779639676402 9.433490436247183 0 0 0
370 1 7.862841637281898 17.289841223571518 11.005918925939342 0 0 0
371 1 9.43659440169458 15.706447378109388 9.441636120218211 0 0 0
372 1 11.002468218715308 17.2940040256652 11.005605179381266 0 0 0
373 1 12.574243655163198 15.696224291422409 9.447744467017817 0 0 0
374 1 14.143919241184852 17.281668144705677 11.00618028756377 0 0 0
375 1 15.704501948036071 15.705935568443174 9.446565317549522 0 0 0
376 1 17.28642134316176 17.287905476872695 11.00723330153831 0 0 0
377 1 18.85837399024532 15.718356227474958 9.43542320374584 0 0 0
378 1 20.433592277790627 17.29163549569933 11.005665646873611 0 0 0
379 1 22.007389342510116 18.864623579753374 9.433378788430238 -1 0 0
380 1 1.571164562026238 20.437532669906833 11.004920107073762 0 0 0
381 1 3.1436644102963927 18.865111564257514 9.433122520126014 0 0 0
382 1 4.716297422873937 20.437782080902664 11.004927208936632 0 0 0
383 1 6.288861865624846 18.864290234201587 9.433568233126321 0 0 0
384 1 7.860743546683148 20.437157043479257 11.00518421787087 0 0 0
385 1 9.431842678959294 18.862556287530893 9.43376616880065 0 0 0
386 1 11.003710986395983 20.437396612751506 11.004977557013145 0 0 0
387 1 12.57567064811859 18.859240100038598 9.435649483424168 0 0 0
388 1 14.147270957589335 20.434755866225256 11.0051618464418 0 0 0
389 1 15.716972787636063 18.8598373427494 9.435387746426722 0 0 0
390 1 17.290265612900225 20.43508239217576 11.005611647144839 0 0 0
391 1 18.861481044869112 18.862870878673675 9.43433552968729 0 0 0
392 1 20.435310846433865 20.436659658819295 11.005166693572313 0 0 0
393 1 22.00859037451751 0.00026230864170171986 12.576817530975486 -1 0 0
394 1 1.5720677446332447 1.5732628429302797 14.148616308466426 0 0 0
395 1 3.1441173657665993 0.0009384975446945306 12.576729994636503 0 0 0
396 1 4.717026425714678 1.5742607206884645 14.148271308668212 0 0 0
397 1 6.288748149117075 0.0014081073520509546 12.57662605910733 0 0 0
398 1 7.8609931781432545 1.575061803537632 14.14822886001509 0 0 0
399 1 9.432408235569744 0.0013259421600236808 12.576886360288743 0 0 0
400 1 11.004375945627219 1.5747979128099407 14.148298027350503 0 0 0
401 1 12.576150570157498 0.000648391867290876 12.576989047290832 0 0 0
402 1 14.1483232553842 1.5734288540032335 14.148689798431327 0 0 0
403 1 15.719352243112048 22.00866362736148 12.576824464370263 0 -1 0
404 1 17.29184517266323 1.5726819056426775 14.148535566981364 0 0 0
405 1 18.863585521977274 22.009110944281982 12.576878843109036 0 -1 0
406 1 20.43651998633071 1.5726794458614424 14.14868679567172 0 0 0
407 1 22.009227164614916 3.145346140160852 12.576725190103605 -1 0 0
408 1 1.57292070567684 4.718274627905901 14.148322941562435 0 0 0
409 1 3.1449903700647126 3.1463392081439414 12.576483372673962 0 0 0
410 1 4.71877912500849 4.7201690079323555 14.147314524338615 0 0 0
411 1 6.290014526374766 3.1480577684603213 12.57598441864556 0 0 0
412 1 7.863293777084506 4.7232760565241 14.146226816019787 0 0 0
413 1 9.433025891074944 3.148449950190449 12.576365666858402 0 0 0
414 1 11.004604911420888 4.723818612844945 14.145966700920265 0 0 0
415 1 12.576613495235309 3.1457525456775812 12.576547866023185 0 0 0
416 1 14.148589792783438 4.720411288957837 14.147888855534312 0 0 0
417 1 15.719670354760034 3.1458764000621713 12.576386808645914 0 0 0
418 1 17.29161919744599 4.718574658622661 14.148127923511867 0 0 0
419 1 18.864104413124746 3.145166260375741 12.576715217703667 0 0 0
420 1 20.436760889467685 4.71772550636797 14.148567362086078 0 0 0
421 1 1.5875228775008418e-05 6.289977491358202 12.57668234721646 0 0 0
422 1 1.5735815432470168 7.86225246652337 14.14834566153495 0 0 0
423 1 3.1465676370457705 6.29138443897309 12.576038380537984 0 0 0
424 1 4.7218126583038975 7.864677263514021 14.146262277493907 0 0 0
425 1 6.293744534044182 6.2952286870195735 12.574416710425538 0 0 0
426 1 7.875714399750437 7.877148077474001 14.135084673458351 0 0 0
427 1 9.436297581733298 6.301448627321731 12.575404994258365 0 0 0
428 1 11.006114254116131 7.886577479795284 14.134019898412742 0 0 0
429 1 12.57788609628368 6.288847968810104 12.576010644652165 0 0 0
430 1 14.143960313202605 7.876233800554216 14.140202144453697 0 0 0
431 1 15.717648729197599 6.292948540196814 12.57575409741998 0 0 0
432 1 17.290814245795733 7.8630122291600335 14.148382082481861 0 0 0
433 1 18.863543184711965 6.290304998382705 12.57663250339127 0 0 0
434 1 20.436762685721288 7.861772396099733 14.148901576050726 0 0 0
435 1 22.009351134313643 9.433686234118845 12.577016192649587 -1 0 0
436 1 1.5732382961483977 11.005629191069362 14.14841223163428 0 0 0
437 1 3.1468941687658467 9.434379096226342 12.576488177417682 0 0 0
438 1 4.722409918950231 11.005979414845555 14.146000547942887 0 0 0
439 1 6.299981871710045 9.437730790462155 12.575469710806878 0 0 0
440 1 7.885425682654702 11.00740637615963 14.133905523228297 0 0 0