LAMMPS data file via write_data, version 2 Aug 2023, timestep = 41, units = metal

687 atoms
3 atom types

0 22.009546999999998 xlo xhi
0 22.009546999999998 ylo yhi
0 22.009546999999998 zlo zhi

Masses

1 183.84
2 1.008
3 4.0026

Atoms # atomic

1 1 22.00881650358094 0.00042919394888461283 22.008471464925464 -1 0 -1
2 1 1.5716774942681717 1.5728370405041046 1.571100461319598 0 0 0
3 1 3.144018026974933 0.0006980033296439716 22.00818126634199 0 0 -1
4 1 4.716173737804953 1.5730514473259356 1.5707767020289813 0 0 0
5 1 6.2883464496860295 0.0008921766128181816 22.008044857819964 0 0 -1
6 1 7.860334391079087 1.573034156590977 1.5706735182771037 0 0 0
7 1 9.432358014022961 0.0008431048518618813 22.00816234576006 0 0 -1
8 1 11.004255150055158 1.572813791985243 1.5708438986632773 0 0 0
9 1 12.576236239587235 0.0006254353245924098 22.008458946461115 0 0 -1
10 1 14.148146910495262 1.5725670876678135 1.5711485734552035 0 0 0
11 1 15.720157245805325 0.0003892472548753489 22.008697091241118 0 0 -1
12 1 17.29217407703847 1.572445513552262 1.5713710987632576 0 0 0
13 1 18.864310226067154 0.0003069731590574253 22.008715526976612 0 0 -1
14 1 20.436507380416803 1.5725619687227614 1.5713581827524874 0 0 0
15 1 22.009085248953973 3.145177665405367 22.00818118461448 -1 0 -1
16 1 1.571892093664283 4.717332669302704 1.57077700101657 0 0 0
17 1 3.1444559484233676 3.1456152658086696 22.007754256557888 0 0 -1
18 1 4.716635858869127 4.717794460292549 1.5704614789114666 0 0 0
19 1 6.2887310445803974 3.1458794473294502 22.007349112449038 0 0 -1
20 1 7.860651951212707 4.717834028671121 1.5701299526681998 0 0 0
21 1 9.432615125123355 3.1458725616506205 22.007293890464112 0 0 -1
22 1 11.004382470424472 4.7176539940765645 1.5702301584262317 0 0 0
23 1 12.576330445056769 3.1456199528835174 22.007591110017973 0 0 -1
24 1 14.148109418240864 4.717401651144766 1.5706786909312886 0 0 0
25 1 15.720170242845692 3.1453324976930035 22.007984097255086 0 0 -1
26 1 17.29211478414085 4.717241603019305 1.5711173078415919 0 0 0
27 1 18.86438307336432 3.1451469819152043 22.008264757113214 0 0 -1
28 1 20.43658535331588 4.717183236657418 1.5711451424818093 0 0 0
29 1 22.009279470171123 6.289505282514559 22.008045212093403 -1 0 -1
30 1 1.571874814748722 7.861492414481503 1.570674384523917 0 0 0
31 1 3.1447203178628027 6.289889501819988 22.007349549999926 0 0 -1
32 1 4.716675218471262 7.861809896153581 1.570130386785029 0 0 0
33 1 6.289136944171955 6.29029538064582 22.006516272533116 0 0 -1
34 1 7.860416066449851 7.861574609576167 1.5698192205391337 0 0 0
35 1 9.432982178012912 6.290481549697502 22.006421568418652 0 0 -1
36 1 11.004422589086136 7.861849835049912 1.570322570749921 0 0 0
37 1 12.576374278150253 6.290244812527208 22.006906801790908 0 0 -1
38 1 14.148301763532702 7.861324885671115 1.5708682111363736 0 0 0
39 1 15.72016343929511 6.2897599370878 22.00758464340085 0 0 -1
40 1 17.292073834885173 7.861374810189205 1.5716531602890351 0 0 0
41 1 18.86442900353734 6.289520105873245 22.008190309473733 0 0 -1
42 1 20.436488199774914 7.861401334511979 1.571333076765425 0 0 0
43 1 22.009230477698193 9.43351609120294 22.008163264189474 -1 0 -1
44 1 1.5716543202611089 11.005412765146168 1.570845028686026 0 0 0
45 1 3.144713278860595 9.433772973260778 22.00729489431754 0 0 -1
46 1 4.716494677284332 11.005540462599154 1.5702309889476316 0 0 0
47 1 6.289322556086429 9.434140465840242 22.006422110052437 0 0 -1
48 1 7.860690475215492 11.005581308077543 1.5703227392150105 0 0 0
49 1 9.432546048996482 9.433705125191054 22.00622470560094 0 0 -1
50 1 11.004032131489922 11.005191492114047 1.5695836965121415 0 0 0
51 1 12.57660841407433 9.43372248167858 22.007074660322186 0 0 -1
52 1 14.148021488261556 11.005045427794226 1.5724681933649476 0 0 0
53 1 15.720407384787102 9.433371436434198 22.008628955154233 0 0 -1
54 1 17.291720524359906 11.005217702153349 1.5724720453485868 0 0 0
55 1 18.864397409908186 9.433505285658715 22.00864863704471 0 0 -1
56 1 20.4362673900551 11.005296899809148 1.5716936299981146 0 0 0
57 1 22.009012876705967 12.577394043433241 22.008460172631104 -1 0 -1
58 1 1.5714075187507293 14.14930483429993 1.571149632450615 0 0 0
59 1 3.1444602809857236 12.577488417133962 22.007592365527856 0 0 -1
60 1 4.7162418342426085 14.14926792643612 1.5706792453119385 0 0 0
61 1 6.289085183166942 12.577532949920172 22.00690757517281 0 0 -1
62 1 7.860165200724803 14.149461106552948 1.5708680977092204 0 0 0
63 1 9.432562888804032 12.577767717719052 22.007074805610845 0 0 -1
64 1 11.003886200419743 14.14918104150865 1.5724678330669781 0 0 0
65 1 12.5765089033999 12.57766830373012 22.009492384166848 0 0 -1
66 1 14.14817442004274 14.149333532713293 1.5729527986471337 0 0 0
67 1 15.720104067687338 12.577279847026112 22.00949924119262 0 0 -1
68 1 17.291495702322145 14.148799601231074 1.5730329359807746 0 0 0
69 1 18.864211991388906 12.577296741558786 22.00917984302818 0 0 -1
70 1 20.436012853673 14.149105480574374 1.5720448772162123 0 0 0
71 1 22.00877666534864 15.72131551696059 22.008698174204948 -1 0 -1
72 1 1.5712857863817726 17.293332864538268 1.571371676570815 0 0 0
73 1 3.1441725763514796 15.721328971522638 22.007985109275428 0 0 -1
74 1 4.716081805577008 17.293274049840818 1.5711174325669497 0 0 0
75 1 6.288600107405073 15.721322763440154 22.007585124513867 0 0 -1
76 1 7.860215490531755 17.293233494822427 1.571652659372422 0 0 0
77 1 9.43221201516699 15.721566906169173 22.008628938759088 0 0 -1
78 1 11.004058994484087 17.29288009134188 1.5724711923304795 0 0 0
79 1 12.576120960768309 15.721263477342951 22.00949894934251 0 0 -1
80 1 14.14764125134357 17.292654788589015 1.5730323505076669 0 0 0
81 1 15.72031426416569 15.721473004676282 0.00018471113875379087 0 0 0
82 1 17.29167292509384 17.29283144706439 1.5728126637427986 0 0 0
83 1 18.864047370943478 15.721120147183582 22.00933983783582 0 0 -1
84 1 20.435957553825688 17.293040257615534 1.5721035239309735 0 0 0
85 1 22.00869437546421 18.865469297246296 22.00871598775592 -1 0 -1
86 1 1.5714022892307842 20.43766686686444 1.5713582640595218 0 0 0
87 1 3.1439871051142094 18.86554255436 22.008265251243014 0 0 -1
88 1 4.716023799113917 20.43774503568648 1.5711448874904257 0 0 0
89 1 6.288360625723273 18.865588770674997 22.00819038915388 0 0 -1
90 1 7.860242710344173 20.437647922754515 1.571332266685151 0 0 0
91 1 9.432346487622386 18.865557124890163 22.0086479691061 0 0 -1
92 1 11.00413888680372 20.437426971889245 1.5716924151604958 0 0 0
93 1 12.576138520840273 18.865371433959247 22.009178979972727 0 0 -1
94 1 14.14794759901081 20.43717218432379 1.5720437778942742 0 0 0
95 1 15.719961886543569 18.8652064174109 22.009339216321262 0 0 -1
96 1 17.291881833587713 20.437116730334033 1.5721029470512269 0 0 0
97 1 18.864036388042855 18.865195254526004 22.009014858181338 0 0 -1
98 1 20.436147443238852 20.43730666718024 1.5717864088036249 0 0 0
99 1 22.008455541796273 6.800547983756417e-05 3.1438270627481772 -1 0 0
100 1 1.5714465281582461 1.5726059517130306 4.715793042952605 0 0 0
101 1 3.1437228001325224 0.0003959955545274525 3.1435384164645974 0 0 0
102 1 4.716076257322498 1.572901418952061 4.715643970927706 0 0 0
103 1 6.288111578218655 0.0003410480994248954 3.1434162213652117 0 0 0
104 1 7.860212470061264 1.5725409631159546 4.715535243495851 0 0 0
105 1 9.43217441952438 5.2565564313085094e-05 3.143591746668687 0 0 0
106 1 11.004124863508432 1.572049595311621 4.715699266183686 0 0 0
107 1 12.576022883976009 22.009248437007074 3.143905140718339 0 -1 0
108 1 14.147981274914 1.5717314077943478 4.715958886096204 0 0 0
109 1 15.719870367029914 22.009066556687287 3.1441618731443866 0 -1 0
110 1 17.29193376672588 1.5717853434624396 4.716171763967738 0 0 0
111 1 18.86394813423271 22.0092304591578 3.1441569879026603 0 -1 0
112 1 20.436202854274462 1.5721099151629196 4.716115334661768 0 0 0
113 1 22.008783392743585 3.1448821436922714 3.1435386681168005 -1 0 0
114 1 1.571741887844862 4.717235119476778 4.715644467245633 0 0 0
115 1 3.144143999230249 3.14530310243528 3.143346441010579 0 0 0
116 1 4.7169423518963525 4.718101184755861 4.716043613260118 0 0 0
117 1 6.288338011581827 3.145297025153468 3.142995846375916 0 0 0
118 1 7.860503279127528 4.717655733183663 4.715444015910953 0 0 0
119 1 9.432306745205237 3.145085315543392 3.1429441057354484 0 0 0
120 1 11.004206716027202 4.717272118084055 4.71545693218116 0 0 0
121 1 12.576133704407544 3.144770157155433 3.143174866694971 0 0 0
122 1 14.147903536523483 4.716965714194073 4.715777720196029 0 0 0
123 1 15.720069368311718 3.1446171533150684 3.143503655971582 0 0 0
124 1 17.291603092441775 4.7172165250174025 4.716328357393138 0 0 0
125 1 18.86414527264823 3.14472331924098 3.1437281946862257 0 0 0
126 1 20.436162103813263 4.717072902444331 4.716034723970172 0 0 0
127 1 22.008728368568562 6.289270268874881 3.1434170499440066 -1 0 0
128 1 1.5713811702052374 7.861370654314961 4.715536210760588 0 0 0
129 1 3.1441379893284913 6.289496301863383 3.1429963587326553 0 0 0
130 1 4.716496247517822 7.86166167704407 4.715444362646205 0 0 0
131 1 6.288774978045478 6.289933502489929 3.1432493717692833 0 0 0
132 1 7.860949779850842 7.862109306541236 4.716847472713034 0 0 0
133 1 9.43261191150574 6.289816982096979 3.1431654683850856 0 0 0
134 1 11.004257655889502 7.862953132660721 4.717714064876096 0 0 0
135 1 12.575918315701157 6.2895596419849955 3.143473454915111 0 0 0
136 1 14.147304195318437 7.8614906676306955 4.717563427472312 0 0 0
137 1 15.719759494555785 6.289374348968008 3.1439366529063655 0 0 0
138 1 17.290899781662972 7.861684262478825 4.717399834857144 0 0 0
139 1 18.863949302445985 6.289308368906323 3.1439528832950683 0 0 0
140 1 20.435673557721916 7.861442414846551 4.716330539967882 0 0 0
141 1 22.008439848945812 9.433332397594578 3.1435929383713352 -1 0 0
142 1 1.5708894725048 11.005282767140663 4.715700260670333 0 0 0
143 1 3.143925906947457 9.433464518930725 3.1429448628365333 0 0 0
144 1 4.716111918061897 11.005365287598945 4.715457289101824 0 0 0
145 1 6.288657621453176 9.433770324747192 3.1431656549923774 0 0 0
146 1 7.861792308809819 11.005417649534182 4.717713563946136 0 0 0
147 1 9.43132443477032 9.432483833520298 3.142746336793487 0 0 0
148 1 11.00313135771187 11.004292420529197 4.707775917957189 0 0 0
149 1 12.576685931240277 9.43254325324293 3.143729890930837 0 0 0
150 1 14.145873799572954 11.00410495926846 4.720476778789607 0 0 0
151 1 15.719410975624694 9.433285217743014 3.1453377245588796 0 0 0
152 1 17.289805061729567 11.005156197757808 4.718993776472159 0 0 0
153 1 18.863476112829595 9.433406849964623 3.1446419143674893 0 0 0
154 1 20.4350995356578 11.005174643673051 4.716827274036232 0 0 0
155 1 22.008088709233917 12.577180650240312 3.143906394918666 -1 0 0
156 1 1.5705711731787073 14.149139577639787 4.715959553061099 0 0 0
157 1 3.1436103518550342 12.577291626107652 3.143175681948933 0 0 0
158 1 4.715804883125114 14.149062804206912 4.715777497547474 0 0 0
159 1 6.288399706822467 12.57707725908546 3.1434735000166403 0 0 0
160 1 7.860329441054815 14.148464919317886 4.717562356794438 0 0 0
161 1 9.431383264702745 12.577845761684985 3.14372936538985 0 0 0
162 1 11.002944173331093 14.147034863557487 4.72047594710947 0 0 0
163 1 12.576301945947739 12.577461758768164 3.1442343886172606 0 0 0
164 1 14.146898392521372 14.14805863821471 4.719651926410546 0 0 0
165 1 15.718726319194008 12.576371535986928 3.1466383505466693 0 0 0
166 1 17.289213655994484 14.147356776169497 4.719683651908349 0 0 0
167 1 18.86305493027348 12.57686654477995 3.14519245361072 0 0 0
168 1 20.43462814906264 14.148591744535334 4.717215296086317 0 0 0
169 1 22.00790696975682 15.721028578429577 3.1441626553457303 -1 0 0
170 1 1.5706252824890254 17.29309277984091 4.71617192853741 0 0 0
171 1 3.143457127856017 15.72122813911476 3.1435038893106233 0 0 0
172 1 4.716056174110129 17.29276296687262 4.716327761111513 0 0 0
173 1 6.2882142167523325 15.720919174674838 3.1439361095832905 0 0 0
174 1 7.860524079077594 17.29206047394324 4.717398565990964 0 0 0
175 1 9.432125563551166 15.720570970838777 3.145336876062365 0 0 0
176 1 11.003996625395615 17.290965746291892 4.7189925177820085 0 0 0
177 1 12.575212359175735 15.719886130033357 3.1466376354932355 0 0 0
178 1 14.146197666698399 17.29037373944178 4.719682863835542 0 0 0
179 1 15.719109315357949 15.720268317154922 3.1463101959983137 0 0 0
180 1 17.289758190695796 17.290917332267473 4.7191208217188025 0 0 0
181 1 18.862901667990094 15.720358007083203 3.1454805560504395 0 0 0
182 1 20.43473932901838 17.292285983496594 4.717269332609613 0 0 0
183 1 22.008070912472853 18.86510708161889 3.1441572339249064 -1 0 0
184 1 1.5709503066382502 20.437362287973173 4.716115122171306 0 0 0
185 1 3.1435635277779883 18.865304716827197 3.1437280032885795 0 0 0
186 1 4.7159134392178075 20.437322007897453 4.716033972564051 0 0 0
187 1 6.28814885077777 18.8651091566555 3.143952085123709 0 0 0
188 1 7.860283488524677 20.436833778390078 4.716329270283131 0 0 0
189 1 9.432248086302483 18.864636047708863 3.144640698914875 0 0 0
190 1 11.004016242558276 20.43625980007725 4.71682586404283 0 0 0
191 1 12.575708231492383 18.86421458375421 3.1451912791689605 0 0 0
192 1 14.147433452478765 20.435788093439967 4.7172142504873795 0 0 0
193 1 15.719199700177198 18.864060824935375 3.1454799616211058 0 0 0
194 1 17.29112729726654 20.435898835109786 4.717268930394464 0 0 0
195 1 18.863233342713663 18.864392204954274 3.14509334047573 0 0 0
196 1 20.435383748650164 20.436543031892892 4.716835206728489 0 0 0
197 1 22.00820593732788 22.00936543230854 6.288306489100626 -1 -1 0
198 1 1.5715166568505123 1.5726761284020454 7.86011807178125 0 0 0
199 1 3.1435833814616463 0.00038835212559464537 6.288039719134814 0 0 0
200 1 4.716328972390454 1.5733033168027253 7.860100035994107 0 0 0
201 1 6.288003554298306 0.00015802567472946385 6.2878977457063865 0 0 0
202 1 7.8600353091579445 1.5727506276520373 7.8596096958339725 0 0 0
203 1 9.432223442852598 22.008858722854146 6.288264856296853 0 -1 0
204 1 11.004196422589265 1.5716468119103448 7.859956311095189 0 0 0
205 1 12.575901698585021 22.00817972772652 6.288584714784333 0 -1 0
206 1 14.14816094223847 1.5710354177612849 7.860023842828244 0 0 0
207 1 15.719568470824424 22.00795475841132 6.2887677362227565 0 -1 0
208 1 17.29182049825287 1.571321423106044 7.860394259030214 0 0 0
209 1 18.863440498093826 22.00839787155151 6.288802257728037 0 -1 0
210 1 20.436134956464794 1.5719555989500538 7.860344867274664 0 0 0
211 1 22.008775703028366 3.144742817548167 6.288040163054692 -1 0 0
212 1 1.57214341051264 4.717488158727603 7.860100542018275 0 0 0
213 1 3.1441894580437912 3.145348708143879 6.287963988774677 0 0 0
214 1 4.717554112859645 4.7187135952955455 7.860521554004528 0 0 0
215 1 6.2884803533148625 3.1457005672626623 6.287807575225476 0 0 0
216 1 7.860863128845991 4.718869589894135 7.859729479074584 0 0 0
217 1 9.43232643770953 3.144952311206447 6.287625917638388 0 0 0
218 1 11.00440098681533 4.717488592233374 7.8600880493878496 0 0 0
219 1 12.57606138835277 3.144317836345706 6.287764747766495 0 0 0
220 1 14.148211759322987 4.716864380191639 7.859601598502499 0 0 0
221 1 15.720018861625485 3.1442220839663944 6.287997731385075 0 0 0
222 1 17.291657748088546 4.717157857137198 7.860448400294895 0 0 0
223 1 18.864021112706673 3.1444401137316005 6.2882477550802385 0 0 0
224 1 20.43634909195624 4.716988409930089 7.86024075208539 0 0 0
225 1 22.008544735463705 6.2891625829438516 6.287898716031388 -1 0 0
226 1 1.571589794617553 7.861194210767889 7.859610596323847 0 0 0
227 1 3.1445408692827383 6.28963905893299 6.2878081204541285 0 0 0
228 1 4.717708805586868 7.862022719901489 7.8597298547557655 0 0 0
229 1 6.2908648412170605 6.292024363088922 6.289913780276999 0 0 0
230 1 7.867995981254117 7.869157394613019 7.8668136255864995 0 0 0
231 1 9.43299422796105 6.290294052405168 6.288419751281863 0 0 0
232 1 11.004421645318468 7.86487524806894 7.865474754269511 0 0 0
233 1 12.575410809605861 6.289720953894318 6.288648703124704 0 0 0
234 1 14.142896833919083 7.865132930838955 7.86528885598958 0 0 0
235 1 15.718350429524529 6.290375683670257 6.289708174235081 0 0 0
236 1 17.28876179942595 7.862969688281053 7.862767457793063 0 0 0
237 1 18.863065020878253 6.2897041455393214 6.288915476533398 0 0 0
238 1 20.435529268155808 7.861182980628595 7.860322682284181 0 0 0
239 1 22.007698055461564 9.43338201675913 6.288266121121488 -1 0 0
240 1 1.5704852708779566 11.005355181858734 7.859957323717362 0 0 0
241 1 3.143791786007299 9.433484913809696 6.287626525617603 0 0 0
242 1 4.716326364469613 11.005560909077518 7.860088368678437 0 0 0
243 1 6.289133054625437 9.434153967794904 6.288419890974139 0 0 0
244 1 7.863711764493198 11.005583961192519 7.8654744017437945 0 0 0
245 1 9.43161043912857 9.432772311894444 6.293552763306606 0 0 0
246 1 11.004102234968135 11.005266362483864 7.814972532492181 0 0 0
247 1 12.576595063895669 9.433067143964776 6.294856109583569 0 0 0
248 1 14.14075902616754 11.001666538288703 7.878474250125036 0 0 0
249 1 15.717034820699867 9.434172998927197 6.292668812420933 0 0 0
250 1 17.28541554376563 11.006289815443665 7.866641514368737 0 0 0
251 1 18.86176348924714 9.433910981500206 6.2900959600208175 0 0 0
252 1 20.433746034621855 11.005397437713059 7.86146588063286 0 0 0
253 1 22.00701894058029 12.577060128918934 6.288585785737231 -1 0 0
254 1 1.56987386947458 14.14932007691603 7.860024535780902 0 0 0
255 1 3.1431565797738563 12.577220266951363 6.287765217502214 0 0 0
256 1 4.715701845357225 14.149372391112173 7.859601530976831 0 0 0
257 1 6.288558776052675 12.576571348537117 6.2886482760549525 0 0 0
258 1 7.863969240584094 14.144059997123584 7.865287689768318 0 0 0
259 1 9.43190394924509 12.577757923266242 6.294854330175869 0 0 0
260 1 11.00050314246213 14.141922908352871 7.878473397662023 0 0 0
261 1 12.57550838450157 12.576670988422114 6.2899300512536405 0 0 0
262 1 14.141563498638838 14.14272616795421 7.871963896185769 0 0 0
263 1 15.713932236176984 12.574249967616312 6.2959603718159975 0 0 0
264 1 17.284592347534254 14.14489731863611 7.866212072812172 0 0 0
265 1 18.860773296832463 12.576291702621916 6.290769958576124 0 0 0
266 1 20.432942089453288 14.148275326274902 7.861658919012844 0 0 0
267 1 22.00679437318334 15.720727187887777 6.288768330810202 -1 0 0
268 1 1.5701606317345074 17.292979977072868 7.8603944056767965 0 0 0
269 1 3.14306108544984 15.72117826838816 6.287997647435652 0 0 0
270 1 4.71599642915318 17.29281855925062 7.860447860531492 0 0 0
271 1 6.289214027872325 15.71951137294673 6.289707302307199 0 0 0
272 1 7.861807845186134 17.289924146299565 7.862766278688088 0 0 0
273 1 9.43301147030658 15.718196852382583 6.292667577428701 0 0 0
274 1 11.005128518697541 17.286578235095003 7.866640376442071 0 0 0
275 1 12.573089007189468 15.715094054148235 6.295959557647749 0 0 0
276 1 14.143736708757347 17.285754192830158 7.8662113513422804 0 0 0
277 1 15.715621941671738 15.716782325439777 6.2944657773619035 0 0 0
278 1 17.285323948602432 17.286484193329887 7.866199294379488 0 0 0
279 1 18.86063849608227 15.718980822015375 6.291035251729802 0 0 0
280 1 20.433255436244284 17.29145027345532 7.8617870946647495 0 0 0
281 1 22.00723807063912 18.864599745559673 6.288802358911049 -1 0 0
282 1 1.5707957376090744 20.43729462288683 7.860344708349593 0 0 0
283 1 3.1432798889598517 18.865180995300246 6.288247300532715 0 0 0
284 1 4.71582841683215 20.437509580851792 7.86024002423901 0 0 0
285 1 6.288543887860772 18.86422578881091 6.288914318304484 0 0 0
286 1 7.860023220000161 20.43669067014812 7.860321433143061 0 0 0
287 1 9.432751193594976 18.862924859301568 6.290094418648381 0 0 0
288 1 11.00423799102391 20.434907807357238 7.861464568946202 0 0 0
289 1 12.575132362823252 18.86193438720508 6.290768737585804 0 0 0
290 1 14.147116150781107 20.4341034646255 7.861657940440443 0 0 0
291 1 15.717821712066977 18.86179875401986 6.2910345987718035 0 0 0
292 1 17.2902909727458 20.434415736292294 7.86178674174019 0 0 0
293 1 18.861432534846543 18.862591905463653 6.290586037307188 0 0 0
294 1 20.435070159727058 20.436229782647374 7.860937654874843 0 0 0
295 1 22.00825515313706 22.009414882798076 9.432322325433798 -1 -1 0
296 1 1.5717767151511075 1.572936517543528 11.004023127105484 0 0 0
297 1 3.1437358619413818 0.0005885521635985359 9.43212290691143 0 0 0
298 1 4.716690971026141 1.5738008953468208 11.003873661497463 0 0 0
299 1 6.288292846655825 0.0007266264948371357 9.432120566806828 0 0 0
300 1 7.860755794539921 1.574130941128036 11.003867623948382 0 0 0
301 1 9.431866252369339 22.009380664157405 9.431901250390426 0 -1 0
302 1 11.004251400419145 1.5719327825362064 11.003720188485094 0 0 0
303 1 12.576151264896547 22.007766726933173 9.432404202056686 0 -1 0
304 1 14.148301139054723 1.5715738666755439 11.003889267216465 0 0 0
305 1 15.71950530406686 22.00747317343862 9.432610929498576 0 -1 0
306 1 17.291755574150308 1.571671206405806 11.004268408340863 0 0 0
307 1 18.86334773514462 22.00833512234664 9.432690111220024 0 -1 0
308 1 20.4363145571312 1.5721693776254915 11.004193584341925 0 0 0
309 1 22.00897560540629 3.144895562147197 9.432123164835584 -1 0 0
310 1 1.5726405853111332 4.717850555085747 11.003873916865576 0 0 0
311 1 3.1446053811004036 3.1457649699379417 9.432041379708714 0 0 0
312 1 4.718395893456703 4.7195560255759474 11.003707744794722 0 0 0
313 1 6.2894630071879805 3.14703462410116 9.432252217172676 0 0 0
314 1 7.863703916945974 4.72286738445183 11.003777713922256 0 0 0
315 1 9.43195506347173 3.1450167199615975 9.431058850626858 0 0 0
316 1 11.004424901437488 4.713353279492326 11.00277545336621 0 0 0
317 1 12.576755110975295 3.1437006914461967 9.431312700228773 0 0 0
318 1 14.14814982057598 4.7180424163867825 11.002701105638232 0 0 0
319 1 15.72012540761111 3.1442846933334785 9.431935740837972 0 0 0
320 1 17.291548929949865 4.717738441059784 11.004265703773736 0 0 0
321 1 18.864042561563757 3.1444803075788244 9.432308990998358 0 0 0
322 1 20.436630029050534 4.717229058364076 11.004095313642564 0 0 0
323 1 22.009112592442 6.289452443100431 9.432121340788985 -1 0 0
324 1 1.5729693289171507 7.861915339817355 11.00386831738519 0 0 0
325 1 3.145874104427088 6.290622376375752 9.432252665103853 0 0 0
326 1 4.721705520185452 7.864864394369526 11.003778256958237 0 0 0
327 1 6.292959079839535 6.29411989622486 9.433918355594145 0 0 0
328 1 7.880004198101167 7.881166991399773 11.002909963602885 0 0 0
329 1 9.432608483251185 6.291738499115368 9.430042555504551 0 0 0
330 1 11.005755491017801 7.833391070159923 11.002621713816346 0 0 0
331 1 12.577516917809426 6.289434944746976 9.43042061539191 0 0 0
332 1 14.140594808242856 7.871561334839893 10.997386904959725 0 0 0
333 1 15.71876157098289 6.2905448033753 9.432756919566382 0 0 0
334 1 17.289120317115902 7.863213240629256 11.005012385890197 0 0 0
335 1 18.863411285546917 6.289541019814568 9.432584599732117 0 0 0
336 1 20.436095063178023 7.86151236794452 11.004339768901671 0 0 0
337 1 22.00821865885503 9.433025747881992 9.431902379932984 -1 0 0
338 1 1.5707701039423025 11.005410959758914 11.003721235289682 0 0 0
339 1 3.143854766435112 9.433114526507586 9.431059574991599 0 0 0
340 1 4.712189622026562 11.005585978177757 11.002776222797463 0 0 0
341 1 6.290575725560181 9.433770100111746 9.430042855930454 0 0 0
342 1 7.832225505764764 11.006919382574878 11.002622433155002 0 0 0
343 1 9.457076716324604 9.45824120899556 9.45509270535687 0 0 0
344 1 20.436310229347658 20.437469780447206 20.436178779100963 0 0 0
345 1 12.560574676454896 9.44943962955119 9.447902735658399 0 0 0
346 1 14.171475847270278 11.013232205073168 11.021658661308823 0 0 0
347 1 15.711657609918895 9.436633897854799 9.439559459006787 0 0 0
348 1 17.292698923982357 11.003644967214662 11.005141162778477 0 0 0
349 1 18.862491158429698 9.432684397062975 9.43281197217619 0 0 0
350 1 20.435978340021826 11.004911181954107 11.004243059903928 0 0 0
351 1 22.006604539871304 12.577310602046738 9.432405309933568 -1 0 0
352 1 1.5704114022960516 14.149461031404282 11.003890245967465 0 0 0
353 1 3.1425379144653456 12.5779150541408 9.431313456428505 0 0 0
354 1 4.716878666007495 14.149311320805031 11.00270188815806 0 0 0
355 1 6.288270723878761 12.578679099047053 9.430420559452871 0 0 0
356 1 7.870396309526383 14.141758658289787 10.99738690615851 0 0 0
357 1 9.44827300499076 12.561740589348199 9.447901804716567 0 0 0
358 1 11.012066815929819 14.172642878699016 11.021658334881401 0 0 0
359 1 12.560534948101088 12.561699685784577 9.392805928696264 0 0 0
360 1 14.09973446113844 14.100898563753981 11.031343515894731 0 0 0
361 1 15.697516585825765 12.574722619379717 9.447602341627979 0 0 0
362 1 17.279073676320678 14.14474647048923 11.005772444339284 0 0 0
363 1 18.858301516446488 12.576873523680124 9.434962374526695 0 0 0
364 1 20.432963566138376 14.148597493629605 11.004522204146614 0 0 0
365 1 22.006311763953164 15.720664802310415 9.432611586344196 -1 0 0
366 1 1.5705097589903803 17.29291557970299 11.00426899984751 0 0 0
367 1 3.143122530842572 15.72128575477422 9.431936038393957 0 0 0
368 1 4.716576194623777 17.292710477487926 11.004265995927193 0 0 0
369 1 6.289381630860545 15.719924011134337 9.432756693044539 0 0 0
370 1 7.862050330756891 17.290283775314 11.005012174892647 0 0 0
371 1 9.43547012852561 15.712821999978502 9.439558843915073 0 0 0
372 1 11.002482568656227 17.293863542663395 11.005140716838474 0 0 0
373 1 12.573559876805222 15.698680922195098 9.447601399784736 0 0 0
374 1 14.143584744763045 17.280236571440366 11.005771927425274 0 0 0
375 1 15.702964829042646 15.704126850538232 9.447195408733059 0 0 0
376 1 17.285980501764303 17.28714162467832 11.006669324469248 0 0 0
377 1 18.857939930703626 15.717957178368023 9.434895073054578 0 0 0
378 1 20.433372574771 17.291397921616245 11.004981755944023 0 0 0
379 1 22.00717480120784 18.864507365089995 9.432690369979701 -1 0 0
380 1 1.571009139745808 20.437474561633426 11.00419375702983 0 0 0
381 1 3.1433193971047957 18.86520293328015 9.432308911456253 0 0 0
382 1 4.716068525481239 20.437790955124502 11.00409516498801 0 0 0
383 1 6.288379797406251 18.86457304893412 9.43258392860283 0 0 0
384 1 7.8603517806118655 20.437257387956436 11.00433914719534 0 0 0
385 1 9.431523235604345 18.863654067822118 9.432811026806352 0 0 0
386 1 11.003750817563844 20.437141351999703 11.004242173598367 0 0 0
387 1 12.575713030687446 18.85946426025739 9.434961351687786 0 0 0
388 1 14.147437483868448 20.434125780664136 11.004521370955276 0 0 0
389 1 15.716797021129329 18.859101347294732 9.434894621749745 0 0 0
390 1 17.290238001942942 20.43453354049618 11.004981349325327 0 0 0
391 1 18.861290638138545 18.86245070218561 9.433764665392417 0 0 0
392 1 20.43523422289323 20.436394234347272 11.00451058793264 0 0 0
393 1 22.008545411189882 0.00015846058610011419 12.576087949891862 -1 0 0
394 1 1.5720865903404757 1.5732466432602135 14.147763490169714 0 0 0
395 1 3.144034442940974 0.0009065688650479623 12.575905600093078 0 0 0
396 1 4.717048860235756 1.5742887644964014 14.147334127344163 0 0 0
397 1 6.28858117902105 0.0013355045391166087 12.575779631624046 0 0 0
398 1 7.860906490970791 1.5748122954514268 14.147397674799063 0 0 0
399 1 9.432310202727503 0.001001453316149266 12.576065196407049 0 0 0
400 1 11.00448137939655 1.5743453868067583 14.147493805852896 0 0 0
401 1 12.57637555316697 5.0636928698385996e-05 12.576264165968844 0 0 0
402 1 14.148647265271793 1.573008391652228 14.147985015765844 0 0 0
403 1 15.719516578165592 22.008191289169755 12.576127884681227 0 -1 0
404 1 17.29193471475217 1.5725232923560097 14.147719348838237 0 0 0
405 1 18.8636045121266 22.00880480242739 12.576167904604763 0 -1 0
406 1 20.4365503110339 1.5725732150354033 14.147911675118518 0 0 0
407 1 22.009293321227048 3.1451945266737518 12.575905503524561 -1 0 0
408 1 1.573128249437069 4.7182086817825 14.14733414373329 0 0 0
409 1 3.1450588496442813 3.14621877634417 12.57557206815767 0 0 0
410 1 4.719174481569949 4.720334734484261 14.146051359715353 0 0 0
411 1 6.29005529329706 3.1480237516176466 12.5750348358935 0 0 0
412 1 7.8631759028603 4.72285685027345 14.145534843676208 0 0 0
413 1 9.432863754351354 3.1475512537547674 12.575619484439988 0 0 0
414 1 11.004718656292194 4.722879025889955 14.145424292548256 0 0 0
415 1 12.57712010632754 3.144583911779912 12.575871130083199 0 0 0
416 1 14.14916290220727 4.720092959476903 14.147336946646906 0 0 0
417 1 15.719853627011041 3.145718547193534 12.575587466343796 0 0 0
418 1 17.29151118690893 4.71876852162891 14.146924967642681 0 0 0
419 1 18.864231938724366 3.1448969370270725 12.575936286472341 0 0 0
420 1 20.436845137769996 4.7176205829747335 14.147647290629182 0 0 0
421 1 0.00017413608483315702 6.289741220565059 12.575779798259978 0 0 0
422 1 1.573650627944253 7.8620661381250745 14.147398251146933 0 0 0
423 1 3.146862801262984 6.291215126159292 12.575035149000668 0 0 0
424 1 4.721695084914715 7.864336301130467 14.145535487372928 0 0 0
425 1 6.294929407838142 6.296090695284486 12.572496122242443 0 0 0
426 1 7.8758593786132565 7.877021779120293 14.134299070679836 0 0 0
427 1 9.435755166751568 6.2997099294588335 12.575216556578514 0 0 0
428 1 11.005860006179624 7.884698210509165 14.134794831917336 0 0 0
429 1 12.57892848363759 6.285893870249686 12.575695670812564 0 0 0
430 1 14.143584967013204 7.87811322693564 14.138895433031777 0 0 0
431 1 15.716645574202685 6.294034208992169 12.574030649120003 0 0 0
432 1 17.290965971378725 7.863009693847954 14.147390688628988 0 0 0
433 1 18.863580329131228 6.2900624295943 12.575735535721966 0 0 0
434 1 20.436925414822262 7.861625853568857 14.147916177596892 0 0 0
435 1 22.009386017197198 9.433470125265998 12.576065955730975 -1 0 0
436 1 1.573182987869438 11.005641035595582 14.14749505522609 0 0 0
437 1 3.1463888048707545 9.434023709590956 12.575620469991028 0 0 0
438 1 4.7217162278478275 11.00587952005237 14.145425463581912 0 0 0
439 1 6.298546520416417 9.436916978215983 12.57521731493435 0 0 0
440 1 7.883534240108548 11.007023073875743 14.134795685899281 0 0 0
441 1 9.471187130293377 9.472351734196828 12.550174029384058 0 0 0