ITEM: TIMESTEP
79
ITEM: NUMBER OF ATOMS
687
ITEM: BOX BOUNDS pp pp pp
0.0000000000000000e+00 2.2009546999999998e+01
0.0000000000000000e+00 2.2009546999999998e+01
0.0000000000000000e+00 2.2009546999999998e+01
ITEM: ATOMS id type xu yu zu
1 1 -0.00029369 -0.00029369 0.000137166
2 1 1.57072 1.57072 1.5719
3 1 3.14318 -0.00063861 -9.97175e-05
4 1 4.71475 1.5704 1.57148
5 1 6.28751 -0.000343951 -0.000213209
6 1 7.85964 1.57098 1.57148
7 1 9.43233 0.000315991 -0.000260193
8 1 11.0046 1.57187 1.57161
9 1 12.5772 0.000924153 -0.00020533
10 1 14.1493 1.57237 1.57192
11 1 15.7219 0.00106243 -6.63276e-05
12 1 17.2937 1.57219 1.57214
13 1 18.866 0.000555323 4.78654e-05
14 1 20.4371 1.57165 1.57234
15 1 -0.00063861 3.14318 -9.97175e-05
16 1 1.5704 4.71475 1.57148
17 1 3.14238 3.14238 -0.00059612
18 1 4.71317 4.71317 1.56967
19 1 6.287 3.14244 -0.000645385
20 1 7.8589 4.71373 1.57004
21 1 9.43205 3.14298 -0.000571775
22 1 11.0045 4.71464 1.57037
23 1 12.5771 3.14355 -0.000409315
24 1 14.1497 4.71504 1.57095
25 1 15.7218 3.14369 -0.000216081
26 1 17.2948 4.71471 1.57101
27 1 18.866 3.14344 -0.000138882
28 1 20.4374 4.71532 1.57188
29 1 -0.000343951 6.28751 -0.000213209
30 1 1.57098 7.85964 1.57148
31 1 3.14244 6.287 -0.000645385
32 1 4.71373 7.8589 1.57004
33 1 6.28624 6.28624 -0.00171762
34 1 7.85812 7.85812 1.56726
35 1 9.43177 6.2865 -0.00157832
36 1 11.0047 7.8586 1.56737
37 1 12.5775 6.28693 -0.00138955
38 1 14.152 7.85841 1.56711
39 1 15.7231 6.28683 -0.00135395
40 1 17.2957 7.85951 1.57031
41 1 18.8665 6.28749 -0.000401041
42 1 20.4382 7.85992 1.57161
43 1 0.000315991 9.43233 -0.000260193
44 1 1.57187 11.0046 1.57161
45 1 3.14298 9.43205 -0.000571775
46 1 4.71464 11.0045 1.57037
47 1 6.2865 9.43177 -0.00157832
48 1 7.8586 11.0047 1.56737
49 1 9.43199 9.43199 -0.00262214
50 1 11.0056 11.0056 1.56499
51 1 12.5784 9.43222 -0.00315969
52 1 14.1534 11.0057 1.56557
53 1 15.7241 9.43222 -0.00189547
54 1 17.2968 11.0053 1.56971
55 1 18.8673 9.43243 -0.000623212
56 1 20.4391 11.0049 1.57147
57 1 0.000924153 12.5772 -0.00020533
58 1 1.57237 14.1493 1.57192
59 1 3.14355 12.5771 -0.000409315
60 1 4.71504 14.1497 1.57095
61 1 6.28693 12.5775 -0.00138955
62 1 7.85841 14.152 1.56711
63 1 9.43222 12.5784 -0.00315969
64 1 11.0057 14.1534 1.56557
65 1 12.579 12.579 -0.00384898
66 1 14.154 14.154 1.56519
67 1 15.7248 12.5787 -0.00219568
68 1 17.2975 14.1516 1.5697
69 1 18.868 12.5778 -0.000692742
70 1 20.4396 14.15 1.57163
71 1 0.00106243 15.7219 -6.63276e-05
72 1 1.57219 17.2937 1.57214
73 1 3.14369 15.7218 -0.000216081
74 1 4.71471 17.2948 1.57101
75 1 6.28683 15.7231 -0.00135395
76 1 7.85951 17.2957 1.57031
77 1 9.43222 15.7241 -0.00189547
78 1 11.0053 17.2968 1.56971
79 1 12.5787 15.7248 -0.00219568
80 1 14.1516 17.2975 1.5697
81 1 15.7248 15.7248 -0.00205141
82 1 17.297 17.297 1.57026
83 1 18.8681 15.723 -0.000563905
84 1 20.4393 17.2946 1.57194
85 1 0.000555323 18.866 4.78654e-05
86 1 1.57165 20.4371 1.57234
87 1 3.14344 18.866 -0.000138882
88 1 4.71532 20.4374 1.57188
89 1 6.28749 18.8665 -0.000401041
90 1 7.85992 20.4382 1.57161
91 1 9.43243 18.8673 -0.000623212
92 1 11.0049 20.4391 1.57147
93 1 12.5778 18.868 -0.000692742
94 1 14.15 20.4396 1.57163
95 1 15.723 18.8681 -0.000563905
96 1 17.2946 20.4393 1.57194
97 1 18.8673 18.8673 -0.000253632
98 1 20.438 20.438 1.57246
99 1 -0.000637632 -0.000637632 3.14462
100 1 1.57025 1.57025 4.71622
101 1 3.14296 -0.00156317 3.14411
102 1 4.71402 1.56875 4.71537
103 1 6.28744 -0.00105233 3.14386
104 1 7.85949 1.56993 4.71571
105 1 9.43229 6.93958e-05 3.14377
106 1 11.0043 1.5718 4.71593
107 1 12.5771 0.00110703 3.14396
108 1 14.1485 1.57292 4.71673
109 1 15.7215 0.00136101 3.14439
110 1 17.2926 1.57278 4.71702
111 1 18.8654 0.00050972 3.14475
112 1 20.4363 1.57173 4.71677
113 1 -0.00156317 3.14296 3.14411
114 1 1.56875 4.71402 4.71537
115 1 3.14122 3.14122 3.14274
116 1 4.71003 4.71003 4.71178
117 1 6.28619 3.14097 3.14246
118 1 7.85757 4.71098 4.71299
119 1 9.43172 3.14227 3.14283
120 1 11.0039 4.71396 4.71353
121 1 12.5768 3.14345 3.14339
122 1 14.149 4.71468 4.71533
123 1 15.7214 3.14356 3.14396
124 1 17.2928 4.71616 4.71652
125 1 18.865 3.14381 3.14449
126 1 20.436 4.71572 4.7165
127 1 -0.00105233 6.28744 3.14386
128 1 1.56993 7.85949 4.71571
129 1 3.14097 6.28619 3.14246
130 1 4.71098 7.85757 4.71299
131 1 6.28262 6.28262 3.13763
132 1 7.84916 7.84916 4.701
133 1 9.43085 6.2848 3.13954
134 1 11.0035 7.85654 4.70558
135 1 12.5774 6.28614 3.14049
136 1 14.1607 7.85003 4.70243
137 1 15.7252 6.28451 3.13991
138 1 17.2966 7.85938 4.71417
139 1 18.8665 6.28737 3.14345
140 1 20.4375 7.8602 4.71613
141 1 6.93958e-05 9.43229 3.14377
142 1 1.5718 11.0043 4.71593
143 1 3.14227 9.43172 3.14283
144 1 4.71396 11.0039 4.71353
145 1 6.2848 9.43085 3.13954
146 1 7.85654 11.0035 4.70558
147 1 9.43082 9.43082 3.13467
148 1 11.0087 11.0087 4.6977
149 1 12.581 9.431 3.13153
150 1 14.16 11.0068 4.70088
151 1 15.7262 9.4317 3.13877
152 1 17.2984 11.0057 4.71272
153 1 18.8677 9.43245 3.14284
154 1 20.4391 11.005 4.71585
155 1 0.00110703 12.5771 3.14396
156 1 1.57292 14.1485 4.71673
157 1 3.14345 12.5768 3.14339
158 1 4.71468 14.149 4.71533
159 1 6.28614 12.5774 3.14049
160 1 7.85003 14.1607 4.70243
161 1 9.431 12.581 3.13153
162 1 11.0068 14.16 4.70088
163 1 12.5828 12.5828 3.12825
164 1 14.1678 14.1678 4.69697
165 1 15.7278 12.5802 3.13779
166 1 17.3001 14.1529 4.71313
167 1 18.8689 12.578 3.14266
168 1 20.44 14.1496 4.71625
169 1 0.00136101 15.7215 3.14439
170 1 1.57278 17.2926 4.71702
171 1 3.14356 15.7214 3.14396
172 1 4.71616 17.2928 4.71652
173 1 6.28451 15.7252 3.13991
174 1 7.85938 17.2966 4.71417
175 1 9.4317 15.7262 3.13877
176 1 11.0057 17.2984 4.71272
177 1 12.5802 15.7278 3.13779
178 1 14.1529 17.3001 4.71313
179 1 15.729 15.729 3.13767
180 1 17.2958 17.2958 4.716
181 1 18.8692 15.7235 3.14305
182 1 20.4389 17.2937 4.71684
183 1 0.00050972 18.8654 3.14475
184 1 1.57173 20.4363 4.71677
185 1 3.14381 18.865 3.14449
186 1 4.71572 20.436 4.7165
187 1 6.28737 18.8665 3.14345
188 1 7.8602 20.4375 4.71613
189 1 9.43245 18.8677 3.14284
190 1 11.005 20.4391 4.71585
191 1 12.578 18.8689 3.14266
192 1 14.1496 20.44 4.71625
193 1 15.7235 18.8692 3.14305
194 1 17.2937 20.4389 4.71684
195 1 18.8669 18.8669 3.14441
196 1 20.4376 20.4376 4.7169
197 1 -0.000953809 -0.000953809 6.28876
198 1 1.56995 1.56995 7.86052
199 1 3.14289 -0.00234083 6.28845
200 1 4.7137 1.56812 7.86018
201 1 6.28743 -0.00269348 6.28834
202 1 7.85899 1.5685 7.86042
203 1 9.4324 -0.000593843 6.28853
204 1 11.0037 1.57302 7.86082
205 1 12.5764 0.00137396 6.28885
206 1 14.1473 1.57426 7.86118
207 1 15.7206 0.00151683 6.28911
208 1 17.2918 1.57319 7.86091
209 1 18.8647 0.000480701 6.28894
210 1 20.4359 1.57175 7.86076
211 1 -0.00234083 3.14289 6.28845
212 1 1.56812 4.7137 7.86018
213 1 3.14066 3.14066 6.28753
214 1 4.70984 4.70984 7.85889
215 1 6.28447 3.13801 6.2863
216 1 7.85412 4.70568 7.85816
217 1 9.43154 3.14179 6.28761
218 1 11.0012 4.72051 7.86034
219 1 12.5751 3.14517 6.28884
220 1 14.1451 4.71992 7.86206
221 1 15.7194 3.14559 6.28936
222 1 17.2908 4.71759 7.86097
223 1 18.8637 3.14448 6.28894
224 1 20.435 4.71593 7.86068
225 1 -0.00269348 6.28743 6.28834
226 1 1.5685 7.85899 7.86042
227 1 3.13801 6.28447 6.2863
228 1 4.70568 7.85412 7.85816
229 1 6.27385 6.27385 6.27642
230 1 7.82192 7.82192 7.83007
231 1 9.43018 6.2811 6.28357
232 1 10.9975 7.88182 7.85004
233 1 12.5748 6.28632 6.28632
234 1 14.147 7.86319 7.86153
235 1 15.7202 6.28906 6.28842
236 1 17.2912 7.86219 7.86135
237 1 18.8639 6.28875 6.28886
238 1 20.4355 7.86063 7.86083
239 1 -0.000593843 9.4324 6.28853
240 1 1.57302 11.0037 7.86082
241 1 3.14179 9.43154 6.28761
242 1 4.72051 11.0012 7.86034
243 1 6.2811 9.43018 6.28357
244 1 7.88182 10.9975 7.85004
245 1 9.40514 9.40514 6.26218
246 1 11.0477 11.0477 7.53483
247 1 12.6136 9.40207 6.248
248 1 14.1467 11.0091 7.84542
249 1 15.7285 9.43261 6.28364
250 1 17.2929 11.0061 7.86018
251 1 18.8665 9.43322 6.28816
252 1 20.4377 11.0049 7.86091
253 1 0.00137396 12.5764 6.28885
254 1 1.57426 14.1473 7.86118
255 1 3.14517 12.5751 6.28884
256 1 4.71992 14.1451 7.86206
257 1 6.28632 12.5748 6.28632
258 1 7.86319 14.147 7.86153
259 1 9.40207 12.6136 6.248
260 1 11.0091 14.1467 7.84542
261 1 12.6271 12.6271 6.23574
262 1 14.1518 14.1518 7.862
263 1 15.7328 12.5816 6.28235
264 1 17.2947 14.1501 7.86127
265 1 18.8685 12.5777 6.28805
266 1 20.4389 14.1489 7.86099
267 1 0.00151683 15.7206 6.28911
268 1 1.57319 17.2918 7.86091
269 1 3.14559 15.7194 6.28936
270 1 4.71759 17.2908 7.86097
271 1 6.28906 15.7202 6.28842
272 1 7.86219 17.2912 7.86135
273 1 9.43261 15.7285 6.28364
274 1 11.0061 17.2929 7.86018
275 1 12.5816 15.7328 6.28235
276 1 14.1501 17.2947 7.86127
277 1 15.7245 15.7245 6.28773
278 1 17.2946 17.2946 7.86072
279 1 18.8674 15.722 6.28883
280 1 20.4386 17.2932 7.86083
281 1 0.000480701 18.8647 6.28894
282 1 1.57175 20.4359 7.86076
283 1 3.14448 18.8637 6.28894
284 1 4.71593 20.435 7.86068
285 1 6.28875 18.8639 6.28886
286 1 7.86063 20.4355 7.86083
287 1 9.43322 18.8665 6.28816
288 1 11.0049 20.4377 7.86091
289 1 12.5777 18.8685 6.28805
290 1 14.1489 20.4389 7.86099
291 1 15.722 18.8674 6.28883
292 1 17.2932 20.4386 7.86083
293 1 18.8662 18.8662 6.28887
294 1 20.4373 20.4373 7.86081
295 1 -0.00107873 -0.00107873 9.43266
296 1 1.56995 1.56995 11.0048
297 1 3.14284 -0.00262726 9.43266
298 1 4.7137 1.56812 11.0052
299 1 6.28726 -0.00325428 9.43266
300 1 7.85899 1.5685 11.0049
301 1 9.43229 -0.00120744 9.43266
302 1 11.0037 1.57302 11.0045
303 1 12.5761 0.00141054 9.43266
304 1 14.1473 1.57426 11.0041
305 1 15.7203 0.00155265 9.43266
306 1 17.2918 1.57319 11.0044
307 1 18.8645 0.000471152 9.43266
308 1 20.4359 1.57175 11.0046
309 1 -0.00262726 3.14284 9.43266
310 1 1.56812 4.7137 11.0052
311 1 3.14041 3.14041 9.43266
312 1 4.70984 4.70984 11.0064
313 1 6.2838 3.13768 9.43266
314 1 7.85412 4.70568 11.0072
315 1 9.43073 3.14263 9.43266
316 1 11.0012 4.72051 11.005
317 1 12.5737 3.14855 9.43266
318 1 14.1451 4.71992 11.0033
319 1 15.7188 3.14619 9.43266
320 1 17.2908 4.71759 11.0044
321 1 18.8632 3.14467 9.43266
322 1 20.435 4.71593 11.0046
323 1 -0.00325428 6.28726 9.43266
324 1 1.5685 7.85899 11.0049
325 1 3.13768 6.2838 9.43266
326 1 4.70568 7.85412 11.0072
327 1 6.27551 6.27551 9.43266
328 1 7.82192 7.82192 11.0353
329 1 9.42298 6.28401 9.43266
330 1 10.9975 7.88182 11.0153
331 1 12.5657 6.30135 9.43266
332 1 14.147 7.86319 11.0038
333 1 15.7176 6.2909 9.43266
334 1 17.2912 7.86219 11.004
335 1 18.8629 6.28898 9.43266
336 1 20.4355 7.86063 11.0045
337 1 -0.00120744 9.43229 9.43266
338 1 1.57302 11.0037 11.0045
339 1 3.14263 9.43073 9.43266
340 1 4.72051 11.0012 11.005
341 1 6.28401 9.42298 9.43266
342 1 7.88182 10.9975 11.0153
343 1 9.29379 9.29379 9.43266
344 1 11.0477 11.0477 11.3305
345 1 12.5687 9.44755 9.43266
346 1 14.1467 11.0091 11.0199
347 1 15.7139 9.43817 9.43266
348 1 17.2929 11.0061 11.0051
349 1 18.8632 9.43364 9.43266
350 1 20.4377 11.0049 11.0044
351 1 0.00141054 12.5761 9.43266
352 1 1.57426 14.1473 11.0041
353 1 3.14855 12.5737 9.43266
354 1 4.71992 14.1451 11.0033
355 1 6.30135 12.5657 9.43266
356 1 7.86319 14.147 11.0038
357 1 9.44755 12.5687 9.43266
358 1 11.0091 14.1467 11.0199
359 1 12.5615 12.5615 9.43266
360 1 14.1518 14.1518 11.0033
361 1 15.7158 12.5756 9.43266
362 1 17.2947 14.1501 11.0041
363 1 18.865 12.5773 9.43266
364 1 20.4389 14.1489 11.0043
365 1 0.00155265 15.7203 9.43266
366 1 1.57319 17.2918 11.0044
367 1 3.14619 15.7188 9.43266
368 1 4.71759 17.2908 11.0044
369 1 6.2909 15.7176 9.43266
370 1 7.86219 17.2912 11.004
371 1 9.43817 15.7139 9.43266
372 1 11.0061 17.2929 11.0051
373 1 12.5756 15.7158 9.43266
374 1 14.1501 17.2947 11.0041
375 1 15.7231 15.7231 9.43266
376 1 17.2946 17.2946 11.0046
377 1 18.8669 15.7219 9.43266
378 1 20.4386 17.2932 11.0045
379 1 0.000471152 18.8645 9.43266
380 1 1.57175 20.4359 11.0046
381 1 3.14467 18.8632 9.43266
382 1 4.71593 20.435 11.0046
383 1 6.28898 18.8629 9.43266
384 1 7.86063 20.4355 11.0045
385 1 9.43364 18.8632 9.43266
386 1 11.0049 20.4377 11.0044
387 1 12.5773 18.865 9.43266
388 1 14.1489 20.4389 11.0043
389 1 15.7219 18.8669 9.43266
390 1 17.2932 20.4386 11.0045
391 1 18.8659 18.8659 9.43266
392 1 20.4373 20.4373 11.0045
393 1 -0.000953809 -0.000953809 12.5766
394 1 1.57025 1.57025 14.1491
395 1 3.14289 -0.00234083 12.5769
396 1 4.71402 1.56875 14.15
397 1 6.28743 -0.00269348 12.577
398 1 7.85949 1.56993 14.1496
399 1 9.4324 -0.000593843 12.5768
400 1 11.0043 1.5718 14.1494
401 1 12.5764 0.00137396 12.5765
402 1 14.1485 1.57292 14.1486
403 1 15.7206 0.00151683 12.5762
404 1 17.2926 1.57278 14.1483
405 1 18.8647 0.000480701 12.5764
406 1 20.4363 1.57173 14.1486
407 1 -0.00234083 3.14289 12.5769
408 1 1.56875 4.71402 14.15
409 1 3.14066 3.14066 12.5778
410 1 4.71003 4.71003 14.1535
411 1 6.28447 3.13801 12.579
412 1 7.85757 4.71098 14.1523
413 1 9.43154 3.14179 12.5777
414 1 11.0039 4.71396 14.1518
415 1 12.5751 3.14517 12.5765
416 1 14.149 4.71468 14.15
417 1 15.7194 3.14559 12.576
418 1 17.2928 4.71616 14.1488
419 1 18.8637 3.14448 12.5764
420 1 20.436 4.71572 14.1488
421 1 -0.00269348 6.28743 12.577
422 1 1.56993 7.85949 14.1496
423 1 3.13801 6.28447 12.579
424 1 4.71098 7.85757 14.1523
425 1 6.27385 6.27385 12.5889
426 1 7.84916 7.84916 14.1643
427 1 9.43018 6.2811 12.5818
428 1 11.0035 7.85654 14.1597
429 1 12.5748 6.28632 12.579
430 1 14.1607 7.85003 14.1629
431 1 15.7202 6.28906 12.5769
432 1 17.2966 7.85938 14.1512
433 1 18.8639 6.28875 12.5765
434 1 20.4375 7.8602 14.1492
435 1 -0.000593843 9.4324 12.5768
436 1 1.5718 11.0043 14.1494
437 1 3.14179 9.43154 12.5777
438 1 4.71396 11.0039 14.1518
439 1 6.2811 9.43018 12.5818
440 1 7.85654 11.0035 14.1597
441 1 9.40514 9.40514 12.6031
442 1 11.0087 11.0087 14.1676
443 1 12.6136 9.40207 12.6173
444 1 14.16 11.0068 14.1644
445 1 15.7285 9.43261 12.5817
446 1 17.2984 11.0057 14.1526
447 1 18.8665 9.43322 12.5772
448 1 20.4391 11.005 14.1495
449 1 0.00137396 12.5764 12.5765
450 1 1.57292 14.1485 14.1486
451 1 3.14517 12.5751 12.5765
452 1 4.71468 14.149 14.15
453 1 6.28632 12.5748 12.579
454 1 7.85003 14.1607 14.1629
455 1 9.40207 12.6136 12.6173
456 1 11.0068 14.16 14.1644
457 1 12.6271 12.6271 12.6296
458 1 14.1678 14.1678 14.1684
459 1 15.7328 12.5816 12.583
460 1 17.3001 14.1529 14.1522
461 1 18.8685 12.5777 12.5773
462 1 20.44 14.1496 14.1491
463 1 0.00151683 15.7206 12.5762
464 1 1.57278 17.2926 14.1483
465 1 3.14559 15.7194 12.576
466 1 4.71616 17.2928 14.1488
467 1 6.28906 15.7202 12.5769
468 1 7.85938 17.2966 14.1512
469 1 9.43261 15.7285 12.5817
470 1 11.0057 17.2984 14.1526
471 1 12.5816 15.7328 12.583
472 1 14.1529 17.3001 14.1522
473 1 15.7245 15.7245 12.5776
474 1 17.2958 17.2958 14.1493
475 1 18.8674 15.722 12.5765
476 1 20.4389 17.2937 14.1485
477 1 0.000480701 18.8647 12.5764
478 1 1.57173 20.4363 14.1486
479 1 3.14448 18.8637 12.5764
480 1 4.71572 20.436 14.1488
481 1 6.28875 18.8639 12.5765
482 1 7.8602 20.4375 14.1492
483 1 9.43322 18.8665 12.5772
484 1 11.005 20.4391 14.1495
485 1 12.5777 18.8685 12.5773
486 1 14.1496 20.44 14.1491
487 1 15.722 18.8674 12.5765
488 1 17.2937 20.4389 14.1485
489 1 18.8662 18.8662 12.5765
490 1 20.4376 20.4376 14.1484
491 1 -0.000637632 -0.000637632 15.7207
492 1 1.57072 1.57072 17.2934
493 1 3.14296 -0.00156317 15.7212
494 1 4.71475 1.5704 17.2939
495 1 6.28744 -0.00105233 15.7215
496 1 7.85964 1.57098 17.2938
497 1 9.43229 6.93958e-05 15.7216
498 1 11.0046 1.57187 17.2937
499 1 12.5771 0.00110703 15.7214
500 1 14.1493 1.57237 17.2934
501 1 15.7215 0.00136101 15.7209
502 1 17.2937 1.57219 17.2932
503 1 18.8654 0.00050972 15.7206
504 1 20.4371 1.57165 17.293
505 1 -0.00156317 3.14296 15.7212
506 1 1.5704 4.71475 17.2939
507 1 3.14122 3.14122 15.7226
508 1 4.71317 4.71317 17.2957
509 1 6.28619 3.14097 15.7229
510 1 7.8589 4.71373 17.2953
511 1 9.43172 3.14227 15.7225
512 1 11.0045 4.71464 17.295
513 1 12.5768 3.14345 15.7219
514 1 14.1497 4.71504 17.2944
515 1 15.7214 3.14356 15.7214
516 1 17.2948 4.71471 17.2943
517 1 18.865 3.14381 15.7208
518 1 20.4374 4.71532 17.2934
519 1 -0.00105233 6.28744 15.7215
520 1 1.57098 7.85964 17.2938
521 1 3.14097 6.28619 15.7229
522 1 4.71373 7.8589 17.2953
523 1 6.28262 6.28262 15.7277
524 1 7.85812 7.85812 17.2981
525 1 9.43085 6.2848 15.7258
526 1 11.0047 7.8586 17.298
527 1 12.5774 6.28614 15.7248
528 1 14.152 7.85841 17.2982
529 1 15.7252 6.28451 15.7254
530 1 17.2957 7.85951 17.295
531 1 18.8665 6.28737 15.7219
532 1 20.4382 7.85992 17.2937
533 1 6.93958e-05 9.43229 15.7216
534 1 1.57187 11.0046 17.2937
535 1 3.14227 9.43172 15.7225
536 1 4.71464 11.0045 17.295
537 1 6.2848 9.43085 15.7258
538 1 7.8586 11.0047 17.298
539 1 9.43082 9.43082 15.7307
540 1 11.0056 11.0056 17.3003
541 1 12.581 9.431 15.7338
542 1 14.1534 11.0057 17.2998
543 1 15.7262 9.4317 15.7266
544 1 17.2968 11.0053 17.2956
545 1 18.8677 9.43245 15.7225
546 1 20.4391 11.0049 17.2939
547 1 0.00110703 12.5771 15.7214
548 1 1.57237 14.1493 17.2934
549 1 3.14345 12.5768 15.7219
550 1 4.71504 14.1497 17.2944
551 1 6.28614 12.5774 15.7248
552 1 7.85841 14.152 17.2982
553 1 9.431 12.581 15.7338
554 1 11.0057 14.1534 17.2998
555 1 12.5828 12.5828 15.7371
556 1 14.154 14.154 17.3001
557 1 15.7278 12.5802 15.7275
558 1 17.2975 14.1516 17.2956
559 1 18.8689 12.578 15.7227
560 1 20.4396 14.15 17.2937
561 1 0.00136101 15.7215 15.7209
562 1 1.57219 17.2937 17.2932
563 1 3.14356 15.7214 15.7214
564 1 4.71471 17.2948 17.2943
565 1 6.28451 15.7252 15.7254
566 1 7.85951 17.2957 17.295
567 1 9.4317 15.7262 15.7266
568 1 11.0053 17.2968 17.2956
569 1 12.5802 15.7278 15.7275
570 1 14.1516 17.2975 17.2956
571 1 15.729 15.729 15.7277
572 1 17.297 17.297 17.2951
573 1 18.8692 15.7235 15.7223
574 1 20.4393 17.2946 17.2934
575 1 0.00050972 18.8654 15.7206
576 1 1.57165 20.4371 17.293
577 1 3.14381 18.865 15.7208
578 1 4.71532 20.4374 17.2934
579 1 6.28737 18.8665 15.7219
580 1 7.85992 20.4382 17.2937
581 1 9.43245 18.8677 15.7225
582 1 11.0049 20.4391 17.2939
583 1 12.578 18.8689 15.7227
584 1 14.15 20.4396 17.2937
585 1 15.7235 18.8692 15.7223
586 1 17.2946 20.4393 17.2934
587 1 18.8669 18.8669 15.7209
588 1 20.438 20.438 17.2929
589 1 -0.00029369 -0.00029369 18.8652
590 1 1.57107 1.57107 20.4374
591 1 3.14318 -0.00063861 18.8654
592 1 4.71508 1.57096 20.4374
593 1 6.28751 -0.000343951 18.8655
594 1 7.85976 1.57134 20.4374
595 1 9.43233 0.000315991 18.8656
596 1 11.0047 1.57194 20.4374
597 1 12.5772 0.000924153 18.8655
598 1 14.1495 1.57231 20.4374
599 1 15.7219 0.00106243 18.8654
600 1 17.2939 1.57219 20.4374
601 1 18.866 0.000555323 18.8653
602 1 20.4376 1.57169 20.4374
603 1 -0.00063861 3.14318 18.8654
604 1 1.57096 4.71508 20.4374
605 1 3.14238 3.14238 18.8659
606 1 4.71434 4.71434 20.4374
607 1 6.287 3.14244 18.866
608 1 7.85932 4.71448 20.4374
609 1 9.43205 3.14298 18.8659
610 1 11.0046 4.71496 20.4374
611 1 12.5771 3.14355 18.8657
612 1 14.1497 4.71525 20.4374
613 1 15.7218 3.14369 18.8655
614 1 17.2945 4.71516 20.4374
615 1 18.866 3.14344 18.8655
616 1 20.4377 4.71542 20.4374
617 1 -0.000343951 6.28751 18.8655
618 1 1.57134 7.85976 20.4374
619 1 3.14244 6.287 18.866
620 1 4.71448 7.85932 20.4374
621 1 6.28624 6.28624 18.867
622 1 7.85913 7.85913 20.4374
623 1 9.43177 6.2865 18.8669
624 1 11.0048 7.85924 20.4374
625 1 12.5775 6.28693 18.8667
626 1 14.1508 7.85941 20.4374
627 1 15.7231 6.28683 18.8667
628 1 17.2953 7.85972 20.4374
629 1 18.8665 6.28749 18.8657
630 1 20.4383 7.85994 20.4374
631 1 0.000315991 9.43233 18.8656
632 1 1.57194 11.0047 20.4374
633 1 3.14298 9.43205 18.8659
634 1 4.71496 11.0046 20.4374
635 1 6.2865 9.43177 18.8669
636 1 7.85924 11.0048 20.4374
637 1 9.43199 9.43199 18.8679
638 1 11.0053 11.0053 20.4374
639 1 12.5784 9.43222 18.8685
640 1 14.1518 11.0054 20.4374
641 1 15.7241 9.43222 18.8672
642 1 17.2961 11.0052 20.4374
643 1 18.8673 9.43243 18.8659
644 1 20.4389 11.0049 20.4374
645 1 0.000924153 12.5772 18.8655
646 1 1.57231 14.1495 20.4374
647 1 3.14355 12.5771 18.8657
648 1 4.71525 14.1497 20.4374
649 1 6.28693 12.5775 18.8667
650 1 7.85941 14.1508 20.4374
651 1 9.43222 12.5784 18.8685
652 1 11.0054 14.1518 20.4374
653 1 12.579 12.579 18.8692
654 1 14.1519 14.1519 20.4374
655 1 15.7248 12.5787 18.8675
656 1 17.2965 14.151 20.4374
657 1 18.868 12.5778 18.866
658 1 20.4393 14.15 20.4374
659 1 0.00106243 15.7219 18.8654
660 1 1.57219 17.2939 20.4374
661 1 3.14369 15.7218 18.8655
662 1 4.71516 17.2945 20.4374
663 1 6.28683 15.7231 18.8667
664 1 7.85972 17.2953 20.4374
665 1 9.43222 15.7241 18.8672
666 1 11.0052 17.2961 20.4374
667 1 12.5787 15.7248 18.8675
668 1 14.151 17.2965 20.4374
669 1 15.7248 15.7248 18.8674
670 1 17.2961 17.2961 20.4374
671 1 18.8681 15.723 18.8659
672 1 20.4391 17.2945 20.4374
673 1 0.000555323 18.866 18.8653
674 1 1.57169 20.4376 20.4374
675 1 3.14344 18.866 18.8655
676 1 4.71542 20.4377 20.4374
677 1 6.28749 18.8665 18.8657
678 1 7.85994 20.4383 20.4374
679 1 9.43243 18.8673 18.8659
680 1 11.0049 20.4389 20.4374
681 1 12.5778 18.868 18.866
682 1 14.15 20.4393 20.4374
683 1 15.723 18.8681 18.8659
684 1 17.2945 20.4391 20.4374
685 1 18.8673 18.8673 18.8656
686 1 20.4382 20.4382 20.4374
687 3 10.701 10.701 9.43265
