LAMMPS (2 Aug 2023)
Running on 8 partitions of processors
    Step     MaxReplicaForce  MaxAtomForce      GradV0         GradV1         GradVc          EBF            EBR            RDT            RD1            PE1            RD2            PE2            RD3            PE3            RD4            PE4            RD5            PE5            RD6            PE6            RD7            PE7            RD8            PE8       
         0   3.010499         1.97704        0.074178145    0.1723527      3.0397334      0.38876356     0.39498063     1.0985559      0              -127105.45     0.14285714     -127105.36     0.28571429     -127105.19     0.42857143     -127105.06     0.57142857     -127105.07     0.71428571     -127105.19     0.85714286     -127105.36     1              -127105.46     
         6   2.5849011        1.3874154      0.068961379    0.15369071     2.6166189      0.3556204      0.36192815     1.0990565      0              -127105.45     0.14289098     -127105.37     0.28574476     -127105.21     0.42860006     -127105.1      0.57139636     -127105.1      0.71425259     -127105.21     0.85710574     -127105.37     1              -127105.46     
Climbing replica = 4
    Step     MaxReplicaForce  MaxAtomForce      GradV0         GradV1         GradVc          EBF            EBR            RDT            RD1            PE1            RD2            PE2            RD3            PE3            RD4            PE4            RD5            PE5            RD6            PE6            RD7            PE7            RD8            PE8       
         6   2.6166189        1.3586303      0.068961379    0.15369071     2.6166189      0.3556204      0.36192815     1.0990565      0              -127105.45     0.14289098     -127105.37     0.28574476     -127105.21     0.42860006     -127105.1      0.57139636     -127105.1      0.71425259     -127105.21     0.85710574     -127105.37     1              -127105.46     
        12   2.2811166        1.0492024      0.064607706    0.13771034     2.2811166      0.33084714     0.33722798     1.1002884      0              -127105.45     0.14293979     -127105.38     0.2858053      -127105.23     0.43023379     -127105.12     0.5713181      -127105.12     0.71419263     -127105.23     0.85705405     -127105.38     1              -127105.46     
