LAMMPS (2 Aug 2023)
Processor partition = 2

units metal

atom_style atomic

atom_modify map array sort 0 0.0

read_data ../Neb_Dump/Bulk/Tet_Tet/tet_0.data
Reading data file ...
  orthogonal box = (-1.0380103e-06 -1.0380103e-06 -1.0380103e-06) to (22.009548 22.009548 22.009548)
  1 by 1 by 1 MPI processor grid
  reading atoms ...
  687 atoms
  reading velocities ...
  687 velocities
  read_data CPU = 0.011 seconds

mass 1 183.84

mass 2 1.00784

mass 3 4.002602

pair_style eam/alloy

pair_coeff * * Potentials/Selected_Potentials/Potential_3/optim102.eam.alloy W H He

thermo 10

run 0
WARNING: No fixes with time integration, atoms won't move (src/verlet.cpp:60)
Neighbor list info ...
  update: every = 1 steps, delay = 0 steps, check = yes
  max neighbors/atom: 2000, page size: 100000
  master list distance cutoff = 6.8513889
  ghost atom cutoff = 6.8513889
  binsize = 3.4256945, bins = 7 7 7
  1 neighbor lists, perpetual/occasional/extra = 1 0 0
  (1) pair eam/alloy, perpetual
      attributes: half, newton on
      pair build: half/bin/atomonly/newton
      stencil: half/bin/3d
      bin: standard
Per MPI rank memory allocation (min/avg/max) = 3.306 | 3.306 | 3.306 Mbytes
   Step          Temp          E_pair         E_mol          TotEng         Press     
         0   0             -6133.3592      0             -6133.3592      1569.8768    
Loop time of 6.25e-07 on 1 procs for 0 steps with 687 atoms

160.0% CPU use with 1 MPI tasks x no OpenMP threads

MPI task timing breakdown:
Section |  min time  |  avg time  |  max time  |%varavg| %total
---------------------------------------------------------------
Pair    | 0          | 0          | 0          |   0.0 |  0.00
Neigh   | 0          | 0          | 0          |   0.0 |  0.00
Comm    | 0          | 0          | 0          |   0.0 |  0.00
Output  | 0          | 0          | 0          |   0.0 |  0.00
Modify  | 0          | 0          | 0          |   0.0 |  0.00
Other   |            | 6.25e-07   |            |       |100.00

Nlocal:            687 ave         687 max         687 min
Histogram: 1 0 0 0 0 0 0 0 0 0
Nghost:           2373 ave        2373 max        2373 min
Histogram: 1 0 0 0 0 0 0 0 0 0
Neighs:          23552 ave       23552 max       23552 min
Histogram: 1 0 0 0 0 0 0 0 0 0

Total # of neighbors = 23552
Ave neighs/atom = 34.282387
Neighbor list builds = 0
Dangerous builds = 0

fix 1 all neb 1

timestep 1e-3

min_style quickmin

thermo 100

variable i equal part

neb 10e-15 10e-18 50000 50000 1000 final ../Neb_Dump/Bulk/Tet_Tet/tet_1.atom
Per MPI rank memory allocation (min/avg/max) = 3.306 | 3.306 | 3.306 Mbytes
   Step          Temp          E_pair         E_mol          TotEng         Press     
         0   0             -6133.0129      0             -6133.0129      1838.029     
       100   3.6380676e-05 -6133.243       0             -6133.243       1538.7007    
       200   3.5302255e-08 -6133.2442      0             -6133.2442      1537.8168    
       300   3.3533799e-12 -6133.2442      0             -6133.2442      1537.8058    
       392   5.5534348e-16 -6133.2442      0             -6133.2442      1537.8054    
Loop time of 0.362764 on 1 procs for 392 steps with 687 atoms

97.4% CPU use with 1 MPI tasks x no OpenMP threads

Minimization stats:
  Stopping criterion = energy tolerance
  Energy initial, next-to-last, final = 
     -6133.01287837105  -6133.24418149834  -6133.24418149837
  Force two-norm initial, final = 2.9710931 1.2814181e-07
  Force max component initial, final = 1.4031071 6.0662573e-08
  Final line search alpha, max atom move = 0 0
  Iterations, force evaluations = 392 392

MPI task timing breakdown:
Section |  min time  |  avg time  |  max time  |%varavg| %total
---------------------------------------------------------------
Pair    | 0.18626    | 0.18626    | 0.18626    |   0.0 | 51.35
Neigh   | 0          | 0          | 0          |   0.0 |  0.00
Comm    | 0.0031701  | 0.0031701  | 0.0031701  |   0.0 |  0.87
Output  | 2.6167e-05 | 2.6167e-05 | 2.6167e-05 |   0.0 |  0.01
Modify  | 0.15708    | 0.15708    | 0.15708    |   0.0 | 43.30
Other   |            | 0.01622    |            |       |  4.47

Nlocal:            687 ave         687 max         687 min
Histogram: 1 0 0 0 0 0 0 0 0 0
Nghost:           2373 ave        2373 max        2373 min
Histogram: 1 0 0 0 0 0 0 0 0 0
Neighs:          23561 ave       23561 max       23561 min
Histogram: 1 0 0 0 0 0 0 0 0 0

Total # of neighbors = 23561
Ave neighs/atom = 34.295488
Neighbor list builds = 0
Dangerous builds = 0
Per MPI rank memory allocation (min/avg/max) = 3.306 | 3.306 | 3.306 Mbytes
   Step          Temp          E_pair         E_mol          TotEng         Press     
       392   0             -6133.2442      0             -6133.2442      1537.8054    
       400   6.0753682e-14 -6133.2442      0             -6133.2442      1537.8054    
       500   3.1746945e-17 -6133.2442      0             -6133.2442      1537.8053    
       502   4.3167873e-17 -6133.2442      0             -6133.2442      1537.8053    
Loop time of 0.110227 on 1 procs for 110 steps with 687 atoms

99.1% CPU use with 1 MPI tasks x no OpenMP threads

Minimization stats:
  Stopping criterion = energy tolerance
  Energy initial, next-to-last, final = 
     -6133.24418149837  -6133.24418170889   -6133.2441817089
  Force two-norm initial, final = 1.2814181e-07 3.5631635e-09
  Force max component initial, final = 6.0662573e-08 2.4907041e-09
  Final line search alpha, max atom move = 0 0
  Iterations, force evaluations = 110 110

MPI task timing breakdown:
Section |  min time  |  avg time  |  max time  |%varavg| %total
---------------------------------------------------------------
Pair    | 0.053973   | 0.053973   | 0.053973   |   0.0 | 48.96
Neigh   | 0          | 0          | 0          |   0.0 |  0.00
Comm    | 0.00092878 | 0.00092878 | 0.00092878 |   0.0 |  0.84
Output  | 7.917e-06  | 7.917e-06  | 7.917e-06  |   0.0 |  0.01
Modify  | 0.048962   | 0.048962   | 0.048962   |   0.0 | 44.42
Other   |            | 0.006355   |            |       |  5.77

Nlocal:            687 ave         687 max         687 min
Histogram: 1 0 0 0 0 0 0 0 0 0
Nghost:           2373 ave        2373 max        2373 min
Histogram: 1 0 0 0 0 0 0 0 0 0
Neighs:          23780 ave       23780 max       23780 min
Histogram: 1 0 0 0 0 0 0 0 0 0

Total # of neighbors = 23780
Ave neighs/atom = 34.614265
Neighbor list builds = 0
Dangerous builds = 0

write_dump all custom ../Neb_Dump/Bulk/Tet_Tet/Neb_Images/neb.$i.atom id type x y z 
write_dump all custom ../Neb_Dump/Bulk/Tet_Tet/Neb_Images/neb.2.atom id type x y z 
Total wall time: 0:00:00
