LAMMPS (2 Aug 2023)
Processor partition = 6

units metal

atom_style atomic

atom_modify map array sort 0 0.0

read_data ../Neb_Dump/Bulk/Tet_Tet/tet_0.data
Reading data file ...
  orthogonal box = (-0.0023797147 -0.0023645006 -0.0022710563) to (25.156148 25.156133 25.156039)
  1 by 1 by 1 MPI processor grid
  reading atoms ...
  1025 atoms
  reading velocities ...
  1025 velocities
  read_data CPU = 0.012 seconds

mass 1 183.84

mass 2 1.00784

mass 3 4.002602

pair_style eam/alloy

pair_coeff * * Potentials/WHHe_test.eam.alloy W H He

thermo 10

run 0
WARNING: No fixes with time integration, atoms won't move (src/verlet.cpp:60)
Neighbor list info ...
  update: every = 1 steps, delay = 0 steps, check = yes
  max neighbors/atom: 2000, page size: 100000
  master list distance cutoff = 6.8513889
  ghost atom cutoff = 6.8513889
  binsize = 3.4256945, bins = 8 8 8
  1 neighbor lists, perpetual/occasional/extra = 1 0 0
  (1) pair eam/alloy, perpetual
      attributes: half, newton on
      pair build: half/bin/atomonly/newton
      stencil: half/bin/3d
      bin: standard
Per MPI rank memory allocation (min/avg/max) = 3.324 | 3.324 | 3.324 Mbytes
   Step          Temp          E_pair         E_mol          TotEng         Press     
         0   0             -9157.7484      0             -9157.7484     -13.790055    
Loop time of 7.91e-07 on 1 procs for 0 steps with 1025 atoms

252.8% CPU use with 1 MPI tasks x no OpenMP threads

MPI task timing breakdown:
Section |  min time  |  avg time  |  max time  |%varavg| %total
---------------------------------------------------------------
Pair    | 0          | 0          | 0          |   0.0 |  0.00
Neigh   | 0          | 0          | 0          |   0.0 |  0.00
Comm    | 0          | 0          | 0          |   0.0 |  0.00
Output  | 0          | 0          | 0          |   0.0 |  0.00
Modify  | 0          | 0          | 0          |   0.0 |  0.00
Other   |            | 7.91e-07   |            |       |100.00

Nlocal:           1025 ave        1025 max        1025 min
Histogram: 1 0 0 0 0 0 0 0 0 0
Nghost:           2901 ave        2901 max        2901 min
Histogram: 1 0 0 0 0 0 0 0 0 0
Neighs:          34016 ave       34016 max       34016 min
Histogram: 1 0 0 0 0 0 0 0 0 0

Total # of neighbors = 34016
Ave neighs/atom = 33.186341
Neighbor list builds = 0
Dangerous builds = 0

fix 1 all neb 1e-4

timestep 1e-3

min_style quickmin

thermo 100

variable i equal part

neb 10e-8 10e-10 5000 5000 100 final ../Neb_Dump/Bulk/Tet_Tet/tet_1.atom
Per MPI rank memory allocation (min/avg/max) = 3.324 | 3.324 | 3.324 Mbytes
   Step          Temp          E_pair         E_mol          TotEng         Press     
         0   0             -9157.3821      0             -9157.3821      122.60616    
        31   0.11134428    -9157.657       0             -9157.6422     -100.44446    
Loop time of 0.0481768 on 1 procs for 31 steps with 1025 atoms

96.9% CPU use with 1 MPI tasks x no OpenMP threads

Minimization stats:
  Stopping criterion = energy tolerance
  Energy initial, next-to-last, final = 
     -9157.38207563517  -9157.65649049232  -9157.65695367671
  Force two-norm initial, final = 3.8926122 0.35898135
  Force max component initial, final = 1.7362593 0.15690241
  Final line search alpha, max atom move = 0 0
  Iterations, force evaluations = 31 31

MPI task timing breakdown:
Section |  min time  |  avg time  |  max time  |%varavg| %total
---------------------------------------------------------------
Pair    | 0.024043   | 0.024043   | 0.024043   |   0.0 | 49.91
Neigh   | 0          | 0          | 0          |   0.0 |  0.00
Comm    | 0.00041938 | 0.00041938 | 0.00041938 |   0.0 |  0.87
Output  | 0          | 0          | 0          |   0.0 |  0.00
Modify  | 0.019301   | 0.019301   | 0.019301   |   0.0 | 40.06
Other   |            | 0.004413   |            |       |  9.16

Nlocal:           1025 ave        1025 max        1025 min
Histogram: 1 0 0 0 0 0 0 0 0 0
Nghost:           2901 ave        2901 max        2901 min
Histogram: 1 0 0 0 0 0 0 0 0 0
Neighs:          33989 ave       33989 max       33989 min
Histogram: 1 0 0 0 0 0 0 0 0 0

Total # of neighbors = 33989
Ave neighs/atom = 33.16
Neighbor list builds = 0
Dangerous builds = 0
Per MPI rank memory allocation (min/avg/max) = 3.324 | 3.324 | 3.324 Mbytes
   Step          Temp          E_pair         E_mol          TotEng         Press     
        31   0             -9157.657       0             -9157.657      -101.43302    
        37   0.031351393   -9157.6577      0             -9157.6536     -98.160706    
Loop time of 0.011816 on 1 procs for 6 steps with 1025 atoms

94.4% CPU use with 1 MPI tasks x no OpenMP threads

Minimization stats:
  Stopping criterion = energy tolerance
  Energy initial, next-to-last, final = 
     -9157.65695367671  -9157.65748312299  -9157.65770223742
  Force two-norm initial, final = 0.35898135 0.32112891
  Force max component initial, final = 0.15690241 0.11554774
  Final line search alpha, max atom move = 0 0
  Iterations, force evaluations = 6 6

MPI task timing breakdown:
Section |  min time  |  avg time  |  max time  |%varavg| %total
---------------------------------------------------------------
Pair    | 0.0068455  | 0.0068455  | 0.0068455  |   0.0 | 57.93
Neigh   | 0          | 0          | 0          |   0.0 |  0.00
Comm    | 0.00010183 | 0.00010183 | 0.00010183 |   0.0 |  0.86
Output  | 0          | 0          | 0          |   0.0 |  0.00
Modify  | 0.0032352  | 0.0032352  | 0.0032352  |   0.0 | 27.38
Other   |            | 0.001634   |            |       | 13.82

Nlocal:           1025 ave        1025 max        1025 min
Histogram: 1 0 0 0 0 0 0 0 0 0
Nghost:           2901 ave        2901 max        2901 min
Histogram: 1 0 0 0 0 0 0 0 0 0
Neighs:          33977 ave       33977 max       33977 min
Histogram: 1 0 0 0 0 0 0 0 0 0

Total # of neighbors = 33977
Ave neighs/atom = 33.148293
Neighbor list builds = 0
Dangerous builds = 0

write_dump all custom ../Neb_Dump/Bulk/Tet_Tet/Neb_Images/neb.$i.atom id type x y z 
write_dump all custom ../Neb_Dump/Bulk/Tet_Tet/Neb_Images/neb.6.atom id type x y z 
Total wall time: 0:00:00
