LAMMPS (2 Aug 2023)
Processor partition = 6

units metal

atom_style atomic

atom_modify map array sort 0 0.0

read_data Lammps_Dump/Surface/111/Depth_9.data
Reading data file ...
  orthogonal box = (0.088598786 0.11745496 -22.325914) to (65.262807 61.496442 75.685114)
  1 by 1 by 1 MPI processor grid
  reading atoms ...
  14401 atoms
  reading velocities ...
  14401 velocities
  read_data CPU = 0.032 seconds

mass 1 183.84

mass 2 1.00784

mass 3 4.002602

pair_style eam/alloy

pair_coeff * * Potentials/Selected_Potentials/Potential_3/optim102.eam.alloy W H He

thermo 10

run 0
WARNING: No fixes with time integration, atoms won't move (src/verlet.cpp:60)
Neighbor list info ...
  update: every = 1 steps, delay = 0 steps, check = yes
  max neighbors/atom: 2000, page size: 100000
  master list distance cutoff = 6.8513889
  ghost atom cutoff = 6.8513889
  binsize = 3.4256945, bins = 20 18 29
  1 neighbor lists, perpetual/occasional/extra = 1 0 0
  (1) pair eam/alloy, perpetual
      attributes: half, newton on
      pair build: half/bin/atomonly/newton
      stencil: half/bin/3d
      bin: standard
Per MPI rank memory allocation (min/avg/max) = 8.204 | 8.204 | 8.204 Mbytes
   Step          Temp          E_pair         E_mol          TotEng         Press     
         0   0             -127105.45      0             -127105.45      0.19843209   
Loop time of 5.41e-07 on 1 procs for 0 steps with 14401 atoms

0.0% CPU use with 1 MPI tasks x no OpenMP threads

MPI task timing breakdown:
Section |  min time  |  avg time  |  max time  |%varavg| %total
---------------------------------------------------------------
Pair    | 0          | 0          | 0          |   0.0 |  0.00
Neigh   | 0          | 0          | 0          |   0.0 |  0.00
Comm    | 0          | 0          | 0          |   0.0 |  0.00
Output  | 0          | 0          | 0          |   0.0 |  0.00
Modify  | 0          | 0          | 0          |   0.0 |  0.00
Other   |            | 5.41e-07   |            |       |100.00

Nlocal:          14401 ave       14401 max       14401 min
Histogram: 1 0 0 0 0 0 0 0 0 0
Nghost:           6973 ave        6973 max        6973 min
Histogram: 1 0 0 0 0 0 0 0 0 0
Neighs:         581668 ave      581668 max      581668 min
Histogram: 1 0 0 0 0 0 0 0 0 0

Total # of neighbors = 581668
Ave neighs/atom = 40.390806
Neighbor list builds = 0
Dangerous builds = 0

fix 1 all neb 1e-4

timestep 1e-3

min_style quickmin

thermo 100

variable i equal part

neb 10e-8 10e-10 5000 5000 100 final Lammps_Dump/Surface/111/Depth_10.atom
Per MPI rank memory allocation (min/avg/max) = 8.204 | 8.204 | 8.204 Mbytes
   Step          Temp          E_pair         E_mol          TotEng         Press     
         0   0             -127105.36      0             -127105.36     -1.7494341    
         6   0.02290462    -127105.37      0             -127105.33     -1.8468649    
Loop time of 0.0959406 on 1 procs for 6 steps with 14401 atoms

91.8% CPU use with 1 MPI tasks x no OpenMP threads

Minimization stats:
  Stopping criterion = energy tolerance
  Energy initial, next-to-last, final = 
      -127105.36357127  -127105.370222435  -127105.373389794
  Force two-norm initial, final = 1.6011344 1.4507711
  Force max component initial, final = 0.71947052 0.65886908
  Final line search alpha, max atom move = 0 0
  Iterations, force evaluations = 6 6

MPI task timing breakdown:
Section |  min time  |  avg time  |  max time  |%varavg| %total
---------------------------------------------------------------
Pair    | 0.057412   | 0.057412   | 0.057412   |   0.0 | 59.84
Neigh   | 0          | 0          | 0          |   0.0 |  0.00
Comm    | 0.00023296 | 0.00023296 | 0.00023296 |   0.0 |  0.24
Output  | 0          | 0          | 0          |   0.0 |  0.00
Modify  | 0.031462   | 0.031462   | 0.031462   |   0.0 | 32.79
Other   |            | 0.006834   |            |       |  7.12

Nlocal:          14401 ave       14401 max       14401 min
Histogram: 1 0 0 0 0 0 0 0 0 0
Nghost:           6973 ave        6973 max        6973 min
Histogram: 1 0 0 0 0 0 0 0 0 0
Neighs:         581657 ave      581657 max      581657 min
Histogram: 1 0 0 0 0 0 0 0 0 0

Total # of neighbors = 581657
Ave neighs/atom = 40.390042
Neighbor list builds = 0
Dangerous builds = 0
Per MPI rank memory allocation (min/avg/max) = 8.204 | 8.204 | 8.204 Mbytes
   Step          Temp          E_pair         E_mol          TotEng         Press     
         6   0             -127105.37      0             -127105.37     -1.9630095    
        12   0.019858658   -127105.38      0             -127105.34     -2.0548672    
Loop time of 0.096405 on 1 procs for 6 steps with 14401 atoms

99.4% CPU use with 1 MPI tasks x no OpenMP threads

Minimization stats:
  Stopping criterion = energy tolerance
  Energy initial, next-to-last, final = 
     -127105.373389794  -127105.379021259  -127105.381703436
  Force two-norm initial, final = 1.4507711 1.315945
  Force max component initial, final = 0.65886908 0.60221788
  Final line search alpha, max atom move = 0 0
  Iterations, force evaluations = 6 6

MPI task timing breakdown:
Section |  min time  |  avg time  |  max time  |%varavg| %total
---------------------------------------------------------------
Pair    | 0.05253    | 0.05253    | 0.05253    |   0.0 | 54.49
Neigh   | 0          | 0          | 0          |   0.0 |  0.00
Comm    | 0.00018188 | 0.00018188 | 0.00018188 |   0.0 |  0.19
Output  | 0          | 0          | 0          |   0.0 |  0.00
Modify  | 0.027866   | 0.027866   | 0.027866   |   0.0 | 28.91
Other   |            | 0.01583    |            |       | 16.42

Nlocal:          14401 ave       14401 max       14401 min
Histogram: 1 0 0 0 0 0 0 0 0 0
Nghost:           6973 ave        6973 max        6973 min
Histogram: 1 0 0 0 0 0 0 0 0 0
Neighs:         581656 ave      581656 max      581656 min
Histogram: 1 0 0 0 0 0 0 0 0 0

Total # of neighbors = 581656
Ave neighs/atom = 40.389973
Neighbor list builds = 0
Dangerous builds = 0

write_dump all custom Lammps_Dump/Neb/neb.$i.dump id type x y z 
write_dump all custom Lammps_Dump/Neb/neb.6.dump id type x y z 
Total wall time: 0:00:00
