LAMMPS (2 Aug 2023)
Processor partition = 5

units metal

atom_style atomic

atom_modify map array sort 0 0.0

read_data ../Neb_Dump/Bulk/Tet_Tet/tet_0.data
Reading data file ...
  orthogonal box = (-1.0380103e-06 -1.0380103e-06 -1.0380103e-06) to (22.009548 22.009548 22.009548)
  1 by 1 by 1 MPI processor grid
  reading atoms ...
  687 atoms
  reading velocities ...
  687 velocities
  read_data CPU = 0.010 seconds

mass 1 183.84

mass 2 1.00784

mass 3 4.002602

pair_style eam/alloy

pair_coeff * * Potentials/Selected_Potentials/Potential_3/optim102.eam.alloy W H He

thermo 10

run 0
WARNING: No fixes with time integration, atoms won't move (src/verlet.cpp:60)
Neighbor list info ...
  update: every = 1 steps, delay = 0 steps, check = yes
  max neighbors/atom: 2000, page size: 100000
  master list distance cutoff = 6.8513889
  ghost atom cutoff = 6.8513889
  binsize = 3.4256945, bins = 7 7 7
  1 neighbor lists, perpetual/occasional/extra = 1 0 0
  (1) pair eam/alloy, perpetual
      attributes: half, newton on
      pair build: half/bin/atomonly/newton
      stencil: half/bin/3d
      bin: standard
Per MPI rank memory allocation (min/avg/max) = 3.306 | 3.306 | 3.306 Mbytes
   Step          Temp          E_pair         E_mol          TotEng         Press     
         0   0             -6133.3592      0             -6133.3592      1569.8768    
Loop time of 5.42e-07 on 1 procs for 0 steps with 687 atoms

0.0% CPU use with 1 MPI tasks x no OpenMP threads

MPI task timing breakdown:
Section |  min time  |  avg time  |  max time  |%varavg| %total
---------------------------------------------------------------
Pair    | 0          | 0          | 0          |   0.0 |  0.00
Neigh   | 0          | 0          | 0          |   0.0 |  0.00
Comm    | 0          | 0          | 0          |   0.0 |  0.00
Output  | 0          | 0          | 0          |   0.0 |  0.00
Modify  | 0          | 0          | 0          |   0.0 |  0.00
Other   |            | 5.42e-07   |            |       |100.00

Nlocal:            687 ave         687 max         687 min
Histogram: 1 0 0 0 0 0 0 0 0 0
Nghost:           2373 ave        2373 max        2373 min
Histogram: 1 0 0 0 0 0 0 0 0 0
Neighs:          23552 ave       23552 max       23552 min
Histogram: 1 0 0 0 0 0 0 0 0 0

Total # of neighbors = 23552
Ave neighs/atom = 34.282387
Neighbor list builds = 0
Dangerous builds = 0

fix 1 all neb 1

timestep 1e-3

min_style quickmin

thermo 100

variable i equal part

neb 10e-15 10e-18 50000 50000 1000 final ../Neb_Dump/Bulk/Tet_Tet/tet_1.atom
Per MPI rank memory allocation (min/avg/max) = 3.306 | 3.306 | 3.306 Mbytes
   Step          Temp          E_pair         E_mol          TotEng         Press     
         0   0             -6133.2255      0             -6133.2255      1660.8099    
       100   0.00012909589 -6133.3422      0             -6133.3421      1499.0307    
       200   1.673572e-07  -6133.3426      0             -6133.3426      1499.4632    
       300   5.8615096e-14 -6133.3426      0             -6133.3426      1499.4688    
       392   6.9968756e-17 -6133.3426      0             -6133.3426      1499.4688    
Loop time of 0.365477 on 1 procs for 392 steps with 687 atoms

98.0% CPU use with 1 MPI tasks x no OpenMP threads

Minimization stats:
  Stopping criterion = energy tolerance
  Energy initial, next-to-last, final = 
     -6133.22552773834  -6133.34257421771  -6133.34257421768
  Force two-norm initial, final = 1.9199045 4.6975853e-08
  Force max component initial, final = 0.96632302 3.3838742e-08
  Final line search alpha, max atom move = 0 0
  Iterations, force evaluations = 392 392

MPI task timing breakdown:
Section |  min time  |  avg time  |  max time  |%varavg| %total
---------------------------------------------------------------
Pair    | 0.18767    | 0.18767    | 0.18767    |   0.0 | 51.35
Neigh   | 0          | 0          | 0          |   0.0 |  0.00
Comm    | 0.0032717  | 0.0032717  | 0.0032717  |   0.0 |  0.90
Output  | 1.4834e-05 | 1.4834e-05 | 1.4834e-05 |   0.0 |  0.00
Modify  | 0.14399    | 0.14399    | 0.14399    |   0.0 | 39.40
Other   |            | 0.03053    |            |       |  8.35

Nlocal:            687 ave         687 max         687 min
Histogram: 1 0 0 0 0 0 0 0 0 0
Nghost:           2373 ave        2373 max        2373 min
Histogram: 1 0 0 0 0 0 0 0 0 0
Neighs:          23547 ave       23547 max       23547 min
Histogram: 1 0 0 0 0 0 0 0 0 0

Total # of neighbors = 23547
Ave neighs/atom = 34.275109
Neighbor list builds = 0
Dangerous builds = 0
Per MPI rank memory allocation (min/avg/max) = 3.306 | 3.306 | 3.306 Mbytes
   Step          Temp          E_pair         E_mol          TotEng         Press     
       392   0             -6133.3426      0             -6133.3426      1499.4688    
       400   2.2796794e-14 -6133.3426      0             -6133.3426      1499.4688    
       500   2.3960793e-17 -6133.3426      0             -6133.3426      1499.4687    
       502   7.0342266e-17 -6133.3426      0             -6133.3426      1499.4687    
Loop time of 0.102824 on 1 procs for 110 steps with 687 atoms

99.2% CPU use with 1 MPI tasks x no OpenMP threads

Minimization stats:
  Stopping criterion = energy tolerance
  Energy initial, next-to-last, final = 
     -6133.34257421768  -6133.34257417858  -6133.34257417856
  Force two-norm initial, final = 4.6975853e-08 3.5412444e-09
  Force max component initial, final = 3.3838742e-08 2.7823912e-09
  Final line search alpha, max atom move = 0 0
  Iterations, force evaluations = 110 110

MPI task timing breakdown:
Section |  min time  |  avg time  |  max time  |%varavg| %total
---------------------------------------------------------------
Pair    | 0.056545   | 0.056545   | 0.056545   |   0.0 | 54.99
Neigh   | 0          | 0          | 0          |   0.0 |  0.00
Comm    | 0.00092484 | 0.00092484 | 0.00092484 |   0.0 |  0.90
Output  | 8.916e-06  | 8.916e-06  | 8.916e-06  |   0.0 |  0.01
Modify  | 0.032891   | 0.032891   | 0.032891   |   0.0 | 31.99
Other   |            | 0.01245    |            |       | 12.11

Nlocal:            687 ave         687 max         687 min
Histogram: 1 0 0 0 0 0 0 0 0 0
Nghost:           2373 ave        2373 max        2373 min
Histogram: 1 0 0 0 0 0 0 0 0 0
Neighs:          23590 ave       23590 max       23590 min
Histogram: 1 0 0 0 0 0 0 0 0 0

Total # of neighbors = 23590
Ave neighs/atom = 34.3377
Neighbor list builds = 0
Dangerous builds = 0

write_dump all custom ../Neb_Dump/Bulk/Tet_Tet/Neb_Images/neb.$i.atom id type x y z 
write_dump all custom ../Neb_Dump/Bulk/Tet_Tet/Neb_Images/neb.5.atom id type x y z 
Total wall time: 0:00:00
