LAMMPS (2 Aug 2023)
Processor partition = 2

units metal

atom_style atomic

atom_modify map array sort 0 0.0

read_data Lammps_Dump/Surface/111/Depth_9.data
Reading data file ...
  orthogonal box = (0.088842503 0.11770511 -22.325705) to (65.262564 61.496192 75.684905)
  1 by 1 by 1 MPI processor grid
  reading atoms ...
  14401 atoms
  reading velocities ...
  14401 velocities
  read_data CPU = 0.039 seconds

mass 1 183.84

mass 2 1.00784

mass 3 4.002602

pair_style eam/alloy

pair_coeff * * Potentials/Selected_Potentials/Potential_3/optim102.eam.alloy W H He

thermo 10

run 0
WARNING: No fixes with time integration, atoms won't move (src/verlet.cpp:60)
Neighbor list info ...
  update: every = 1 steps, delay = 0 steps, check = yes
  max neighbors/atom: 2000, page size: 100000
  master list distance cutoff = 6.8513889
  ghost atom cutoff = 6.8513889
  binsize = 3.4256945, bins = 20 18 29
  1 neighbor lists, perpetual/occasional/extra = 1 0 0
  (1) pair eam/alloy, perpetual
      attributes: half, newton on
      pair build: half/bin/atomonly/newton
      stencil: half/bin/3d
      bin: standard
Per MPI rank memory allocation (min/avg/max) = 8.218 | 8.218 | 8.218 Mbytes
   Step          Temp          E_pair         E_mol          TotEng         Press     
         0   0             -127111.67      0             -127111.67      0.28232119   
Loop time of 4.17e-07 on 1 procs for 0 steps with 14401 atoms

0.0% CPU use with 1 MPI tasks x no OpenMP threads

MPI task timing breakdown:
Section |  min time  |  avg time  |  max time  |%varavg| %total
---------------------------------------------------------------
Pair    | 0          | 0          | 0          |   0.0 |  0.00
Neigh   | 0          | 0          | 0          |   0.0 |  0.00
Comm    | 0          | 0          | 0          |   0.0 |  0.00
Output  | 0          | 0          | 0          |   0.0 |  0.00
Modify  | 0          | 0          | 0          |   0.0 |  0.00
Other   |            | 4.17e-07   |            |       |100.00

Nlocal:          14401 ave       14401 max       14401 min
Histogram: 1 0 0 0 0 0 0 0 0 0
Nghost:           6973 ave        6973 max        6973 min
Histogram: 1 0 0 0 0 0 0 0 0 0
Neighs:         581784 ave      581784 max      581784 min
Histogram: 1 0 0 0 0 0 0 0 0 0

Total # of neighbors = 581784
Ave neighs/atom = 40.398861
Neighbor list builds = 0
Dangerous builds = 0

fix 1 all neb 1e-4

timestep 1e-3

min_style quickmin

thermo 100

variable i equal part

neb 10e-8 10e-10 5000 5000 100 final Lammps_Dump/Surface/111/Depth_10.atom
Per MPI rank memory allocation (min/avg/max) = 8.218 | 8.218 | 8.218 Mbytes
   Step          Temp          E_pair         E_mol          TotEng         Press     
         0   0             -127111.67      0             -127111.67     -0.25203196   
         6   2.5670921e-05 -127111.67      0             -127111.67     -0.19171422   
Loop time of 0.0980172 on 1 procs for 6 steps with 14401 atoms

93.8% CPU use with 1 MPI tasks x no OpenMP threads

Minimization stats:
  Stopping criterion = energy tolerance
  Energy initial, next-to-last, final = 
     -127111.669799007  -127111.669808643  -127111.669813363
  Force two-norm initial, final = 0.064608293 0.059304169
  Force max component initial, final = 0.026293771 0.026313681
  Final line search alpha, max atom move = 0 0
  Iterations, force evaluations = 6 6

MPI task timing breakdown:
Section |  min time  |  avg time  |  max time  |%varavg| %total
---------------------------------------------------------------
Pair    | 0.064635   | 0.064635   | 0.064635   |   0.0 | 65.94
Neigh   | 0          | 0          | 0          |   0.0 |  0.00
Comm    | 0.00034638 | 0.00034638 | 0.00034638 |   0.0 |  0.35
Output  | 0          | 0          | 0          |   0.0 |  0.00
Modify  | 0.022306   | 0.022306   | 0.022306   |   0.0 | 22.76
Other   |            | 0.01073    |            |       | 10.95

Nlocal:          14401 ave       14401 max       14401 min
Histogram: 1 0 0 0 0 0 0 0 0 0
Nghost:           6973 ave        6973 max        6973 min
Histogram: 1 0 0 0 0 0 0 0 0 0
Neighs:         581785 ave      581785 max      581785 min
Histogram: 1 0 0 0 0 0 0 0 0 0

Total # of neighbors = 581785
Ave neighs/atom = 40.398931
Neighbor list builds = 0
Dangerous builds = 0
Per MPI rank memory allocation (min/avg/max) = 8.218 | 8.218 | 8.218 Mbytes
   Step          Temp          E_pair         E_mol          TotEng         Press     
         6   0             -127111.67      0             -127111.67     -0.1918444    
        12   2.816154e-05  -127111.67      0             -127111.67     -0.12948586   
Loop time of 0.116943 on 1 procs for 6 steps with 14401 atoms

95.4% CPU use with 1 MPI tasks x no OpenMP threads

Minimization stats:
  Stopping criterion = energy tolerance
  Energy initial, next-to-last, final = 
     -127111.669813363   -127111.66982301  -127111.669827747
  Force two-norm initial, final = 0.059304169 0.05419064
  Force max component initial, final = 0.026313681 0.026332558
  Final line search alpha, max atom move = 0 0
  Iterations, force evaluations = 6 6

MPI task timing breakdown:
Section |  min time  |  avg time  |  max time  |%varavg| %total
---------------------------------------------------------------
Pair    | 0.058129   | 0.058129   | 0.058129   |   0.0 | 49.71
Neigh   | 0          | 0          | 0          |   0.0 |  0.00
Comm    | 0.00044087 | 0.00044087 | 0.00044087 |   0.0 |  0.38
Output  | 0          | 0          | 0          |   0.0 |  0.00
Modify  | 0.043849   | 0.043849   | 0.043849   |   0.0 | 37.50
Other   |            | 0.01452    |            |       | 12.42

Nlocal:          14401 ave       14401 max       14401 min
Histogram: 1 0 0 0 0 0 0 0 0 0
Nghost:           6973 ave        6973 max        6973 min
Histogram: 1 0 0 0 0 0 0 0 0 0
Neighs:         581785 ave      581785 max      581785 min
Histogram: 1 0 0 0 0 0 0 0 0 0

Total # of neighbors = 581785
Ave neighs/atom = 40.398931
Neighbor list builds = 0
Dangerous builds = 0

write_dump all custom Lammps_Dump/Neb/neb.$i.dump id type x y z 
write_dump all custom Lammps_Dump/Neb/neb.2.dump id type x y z 
Total wall time: 0:00:00
