LAMMPS (2 Aug 2023)
Processor partition = 3

units metal

atom_style atomic

atom_modify map array sort 0 0.0

read_data ../Neb_Dump/Bulk/Tet_Tet/tet_0.data
Reading data file ...
  orthogonal box = (-0.0023797147 -0.0023645006 -0.0022710563) to (25.156148 25.156133 25.156039)
  1 by 1 by 1 MPI processor grid
  reading atoms ...
  1025 atoms
  reading velocities ...
  1025 velocities
  read_data CPU = 0.013 seconds

mass 1 183.84

mass 2 1.00784

mass 3 4.002602

pair_style eam/alloy

pair_coeff * * Potentials/WHHe_test.eam.alloy W H He

thermo 10

run 0
WARNING: No fixes with time integration, atoms won't move (src/verlet.cpp:60)
Neighbor list info ...
  update: every = 1 steps, delay = 0 steps, check = yes
  max neighbors/atom: 2000, page size: 100000
  master list distance cutoff = 6.8513889
  ghost atom cutoff = 6.8513889
  binsize = 3.4256945, bins = 8 8 8
  1 neighbor lists, perpetual/occasional/extra = 1 0 0
  (1) pair eam/alloy, perpetual
      attributes: half, newton on
      pair build: half/bin/atomonly/newton
      stencil: half/bin/3d
      bin: standard
Per MPI rank memory allocation (min/avg/max) = 3.324 | 3.324 | 3.324 Mbytes
   Step          Temp          E_pair         E_mol          TotEng         Press     
         0   0             -9157.7484      0             -9157.7484     -13.790055    
Loop time of 6.25e-07 on 1 procs for 0 steps with 1025 atoms

160.0% CPU use with 1 MPI tasks x no OpenMP threads

MPI task timing breakdown:
Section |  min time  |  avg time  |  max time  |%varavg| %total
---------------------------------------------------------------
Pair    | 0          | 0          | 0          |   0.0 |  0.00
Neigh   | 0          | 0          | 0          |   0.0 |  0.00
Comm    | 0          | 0          | 0          |   0.0 |  0.00
Output  | 0          | 0          | 0          |   0.0 |  0.00
Modify  | 0          | 0          | 0          |   0.0 |  0.00
Other   |            | 6.25e-07   |            |       |100.00

Nlocal:           1025 ave        1025 max        1025 min
Histogram: 1 0 0 0 0 0 0 0 0 0
Nghost:           2901 ave        2901 max        2901 min
Histogram: 1 0 0 0 0 0 0 0 0 0
Neighs:          34016 ave       34016 max       34016 min
Histogram: 1 0 0 0 0 0 0 0 0 0

Total # of neighbors = 34016
Ave neighs/atom = 33.186341
Neighbor list builds = 0
Dangerous builds = 0

fix 1 all neb 1e-4

timestep 1e-3

min_style quickmin

thermo 100

variable i equal part

neb 10e-8 10e-10 5000 5000 100 final ../Neb_Dump/Bulk/Tet_Tet/tet_1.atom
Per MPI rank memory allocation (min/avg/max) = 3.324 | 3.324 | 3.324 Mbytes
   Step          Temp          E_pair         E_mol          TotEng         Press     
         0   0             -9157.1897      0             -9157.1897      98.060389    
        31   0.13173559    -9157.6         0             -9157.5826     -146.25268    
Loop time of 0.0481813 on 1 procs for 31 steps with 1025 atoms

96.2% CPU use with 1 MPI tasks x no OpenMP threads

Minimization stats:
  Stopping criterion = energy tolerance
  Energy initial, next-to-last, final = 
     -9157.18972776059  -9157.59949830318  -9157.60004330878
  Force two-norm initial, final = 4.6625028 0.38079999
  Force max component initial, final = 2.0052516 0.13727286
  Final line search alpha, max atom move = 0 0
  Iterations, force evaluations = 31 31

MPI task timing breakdown:
Section |  min time  |  avg time  |  max time  |%varavg| %total
---------------------------------------------------------------
Pair    | 0.024253   | 0.024253   | 0.024253   |   0.0 | 50.34
Neigh   | 0          | 0          | 0          |   0.0 |  0.00
Comm    | 0.00038213 | 0.00038213 | 0.00038213 |   0.0 |  0.79
Output  | 0          | 0          | 0          |   0.0 |  0.00
Modify  | 0.019512   | 0.019512   | 0.019512   |   0.0 | 40.50
Other   |            | 0.004034   |            |       |  8.37

Nlocal:           1025 ave        1025 max        1025 min
Histogram: 1 0 0 0 0 0 0 0 0 0
Nghost:           2901 ave        2901 max        2901 min
Histogram: 1 0 0 0 0 0 0 0 0 0
Neighs:          33964 ave       33964 max       33964 min
Histogram: 1 0 0 0 0 0 0 0 0 0

Total # of neighbors = 33964
Ave neighs/atom = 33.13561
Neighbor list builds = 0
Dangerous builds = 0
Per MPI rank memory allocation (min/avg/max) = 3.324 | 3.324 | 3.324 Mbytes
   Step          Temp          E_pair         E_mol          TotEng         Press     
        31   0             -9157.6         0             -9157.6        -147.42228    
        37   0.035676647   -9157.6009      0             -9157.5962     -144.90212    
Loop time of 0.0118155 on 1 procs for 6 steps with 1025 atoms

100.0% CPU use with 1 MPI tasks x no OpenMP threads

Minimization stats:
  Stopping criterion = energy tolerance
  Energy initial, next-to-last, final = 
     -9157.60004330878  -9157.60064804035  -9157.60091199302
  Force two-norm initial, final = 0.38079999 0.36014939
  Force max component initial, final = 0.13727286 0.12914037
  Final line search alpha, max atom move = 0 0
  Iterations, force evaluations = 6 6

MPI task timing breakdown:
Section |  min time  |  avg time  |  max time  |%varavg| %total
---------------------------------------------------------------
Pair    | 0.0043159  | 0.0043159  | 0.0043159  |   0.0 | 36.53
Neigh   | 0          | 0          | 0          |   0.0 |  0.00
Comm    | 6.2334e-05 | 6.2334e-05 | 6.2334e-05 |   0.0 |  0.53
Output  | 0          | 0          | 0          |   0.0 |  0.00
Modify  | 0.0068605  | 0.0068605  | 0.0068605  |   0.0 | 58.06
Other   |            | 0.0005768  |            |       |  4.88

Nlocal:           1025 ave        1025 max        1025 min
Histogram: 1 0 0 0 0 0 0 0 0 0
Nghost:           2901 ave        2901 max        2901 min
Histogram: 1 0 0 0 0 0 0 0 0 0
Neighs:          33949 ave       33949 max       33949 min
Histogram: 1 0 0 0 0 0 0 0 0 0

Total # of neighbors = 33949
Ave neighs/atom = 33.120976
Neighbor list builds = 0
Dangerous builds = 0

write_dump all custom ../Neb_Dump/Bulk/Tet_Tet/Neb_Images/neb.$i.atom id type x y z 
write_dump all custom ../Neb_Dump/Bulk/Tet_Tet/Neb_Images/neb.3.atom id type x y z 
Total wall time: 0:00:00
