LAMMPS (2 Aug 2023)
Running on 6 partitions of processors
    Step     MaxReplicaForce  MaxAtomForce      GradV0         GradV1         GradVc          EBF            EBR            RDT            RD1            PE1            RD2            PE2            RD3            PE3            RD4            PE4            RD5            PE5            RD6            PE6       
         0   23.040428        139.25647      1.6983288e-05  0.13200995     23.054477      3.0471156      3.0465182      3.5687687      0              -127105.45     0.2            -127103.36     0.4            -127102.41     0.6            -127102.41     0.8            -127103.36     1              -127105.45     
        12   0.61468849       0.11432787     5.8483056e-06  0.0025754004   0.74574023     0.17225508     0.171973       4.0155505      0              -127105.45     0.1988811      -127105.28     0.39281004     -127105.36     0.60746924     -127105.36     0.80113632     -127105.28     1              -127105.45     
Climbing replica = 2
    Step     MaxReplicaForce  MaxAtomForce      GradV0         GradV1         GradVc          EBF            EBR            RDT            RD1            PE1            RD2            PE2            RD3            PE3            RD4            PE4            RD5            PE5            RD6            PE6       
        12   0.74574023       0.13798876     5.8483056e-06  0.0025754004   0.74574023     0.17225508     0.171973       4.0155505      0              -127105.45     0.1988811      -127105.28     0.39281004     -127105.36     0.60746924     -127105.36     0.80113632     -127105.28     1              -127105.45     
        18   0.73237828       0.13763855     5.7823281e-06  0.0022413296   0.73237828     0.17157904     0.17129703     4.0231659      0              -127105.45     0.19754658     -127105.28     0.39297847     -127105.36     0.60747001     -127105.36     0.80100477     -127105.29     1              -127105.45     
