LAMMPS (2 Aug 2023)
Processor partition = 6

units metal

atom_style atomic

atom_modify map array sort 0 0.0

read_data ../Neb_Dump/Bulk/Tet_Tet/tet_0.data
Reading data file ...
  orthogonal box = (-1.0380103e-06 -1.0380103e-06 -1.0380103e-06) to (22.009548 22.009548 22.009548)
  1 by 1 by 1 MPI processor grid
  reading atoms ...
  687 atoms
  reading velocities ...
  687 velocities
  read_data CPU = 0.011 seconds

mass 1 183.84

mass 2 1.00784

mass 3 4.002602

pair_style eam/alloy

pair_coeff * * Potentials/WHHe_test.eam.alloy W H He

thermo 10

run 0
WARNING: No fixes with time integration, atoms won't move (src/verlet.cpp:60)
Neighbor list info ...
  update: every = 1 steps, delay = 0 steps, check = yes
  max neighbors/atom: 2000, page size: 100000
  master list distance cutoff = 6.8513889
  ghost atom cutoff = 6.8513889
  binsize = 3.4256945, bins = 7 7 7
  1 neighbor lists, perpetual/occasional/extra = 1 0 0
  (1) pair eam/alloy, perpetual
      attributes: half, newton on
      pair build: half/bin/atomonly/newton
      stencil: half/bin/3d
      bin: standard
Per MPI rank memory allocation (min/avg/max) = 3.306 | 3.306 | 3.306 Mbytes
   Step          Temp          E_pair         E_mol          TotEng         Press     
         0   0             -6132.7652      0             -6132.7652      2539.8515    
Loop time of 3.75e-07 on 1 procs for 0 steps with 687 atoms

0.0% CPU use with 1 MPI tasks x no OpenMP threads

MPI task timing breakdown:
Section |  min time  |  avg time  |  max time  |%varavg| %total
---------------------------------------------------------------
Pair    | 0          | 0          | 0          |   0.0 |  0.00
Neigh   | 0          | 0          | 0          |   0.0 |  0.00
Comm    | 0          | 0          | 0          |   0.0 |  0.00
Output  | 0          | 0          | 0          |   0.0 |  0.00
Modify  | 0          | 0          | 0          |   0.0 |  0.00
Other   |            | 3.75e-07   |            |       |100.00

Nlocal:            687 ave         687 max         687 min
Histogram: 1 0 0 0 0 0 0 0 0 0
Nghost:           2373 ave        2373 max        2373 min
Histogram: 1 0 0 0 0 0 0 0 0 0
Neighs:          24700 ave       24700 max       24700 min
Histogram: 1 0 0 0 0 0 0 0 0 0

Total # of neighbors = 24700
Ave neighs/atom = 35.953421
Neighbor list builds = 0
Dangerous builds = 0

fix 1 all neb 1

timestep 1e-3

min_style quickmin

thermo 100

variable i equal part

neb 10e-15 10e-18 50000 50000 1000 final ../Neb_Dump/Bulk/Tet_Tet/tet_1.atom
Per MPI rank memory allocation (min/avg/max) = 3.306 | 3.306 | 3.306 Mbytes
   Step          Temp          E_pair         E_mol          TotEng         Press     
         0   0             -6132.7652      0             -6132.7652      2539.8317    
       100   7.2844372e-07 -6132.7652      0             -6132.7652      2539.8488    
       200   1.3999793e-07 -6132.7652      0             -6132.7652      2539.8541    
       300   1.5681258e-07 -6132.7652      0             -6132.7652      2539.8582    
       400   1.4715909e-08 -6132.7652      0             -6132.7652      2539.8613    
       500   1.3660965e-08 -6132.7652      0             -6132.7652      2539.8635    
       600   1.7179696e-08 -6132.7652      0             -6132.7652      2539.8652    
       700   2.1274692e-09 -6132.7652      0             -6132.7652      2539.8666    
       800   3.652541e-10  -6132.7652      0             -6132.7652      2539.8676    
       900   1.1384837e-09 -6132.7652      0             -6132.7652      2539.8683    
      1000   4.0106932e-11 -6132.7652      0             -6132.7652      2539.8689    
      1100   9.2417455e-10 -6132.7652      0             -6132.7652      2539.8693    
      1200   3.3566645e-11 -6132.7652      0             -6132.7652      2539.8697    
      1300   1.7400185e-12 -6132.7652      0             -6132.7652      2539.8699    
      1400   1.2700425e-10 -6132.7652      0             -6132.7652      2539.8701    
      1500   4.6018535e-11 -6132.7652      0             -6132.7652      2539.8702    
      1600   3.2631328e-11 -6132.7652      0             -6132.7652      2539.8703    
      1700   3.3285343e-12 -6132.7652      0             -6132.7652      2539.8704    
      1800   3.0902448e-12 -6132.7652      0             -6132.7652      2539.8705    
      1900   3.1580023e-12 -6132.7652      0             -6132.7652      2539.8705    
      2000   1.8887162e-12 -6132.7652      0             -6132.7652      2539.8705    
      2100   1.498297e-12  -6132.7652      0             -6132.7652      2539.8706    
      2200   1.0098751e-12 -6132.7652      0             -6132.7652      2539.8706    
      2300   2.5306549e-13 -6132.7652      0             -6132.7652      2539.8706    
      2400   5.1178629e-13 -6132.7652      0             -6132.7652      2539.8706    
      2500   1.2408883e-13 -6132.7652      0             -6132.7652      2539.8706    
      2600   1.3892758e-13 -6132.7652      0             -6132.7652      2539.8706    
      2700   4.1744667e-14 -6132.7652      0             -6132.7652      2539.8706    
      2800   1.788078e-14  -6132.7652      0             -6132.7652      2539.8706    
      2900   4.5898611e-15 -6132.7652      0             -6132.7652      2539.8706    
      3000   7.152442e-15  -6132.7652      0             -6132.7652      2539.8706    
      3100   1.4620483e-15 -6132.7652      0             -6132.7652      2539.8706    
      3200   6.0997721e-16 -6132.7652      0             -6132.7652      2539.8706    
      3300   1.8246279e-15 -6132.7652      0             -6132.7652      2539.8706    
      3400   3.9526593e-16 -6132.7652      0             -6132.7652      2539.8706    
      3500   2.6791775e-16 -6132.7652      0             -6132.7652      2539.8706    
      3600   2.9396835e-16 -6132.7652      0             -6132.7652      2539.8706    
      3700   1.7952928e-16 -6132.7652      0             -6132.7652      2539.8706    
      3800   2.5072189e-17 -6132.7652      0             -6132.7652      2539.8706    
      3900   9.5076115e-18 -6132.7652      0             -6132.7652      2539.8706    
      4000   9.6171373e-18 -6132.7652      0             -6132.7652      2539.8706    
      4100   1.4988607e-18 -6132.7652      0             -6132.7652      2539.8706    
      4127   9.979431e-21  -6132.7652      0             -6132.7652      2539.8706    
Loop time of 3.80814 on 1 procs for 4127 steps with 687 atoms

98.7% CPU use with 1 MPI tasks x no OpenMP threads

Minimization stats:
  Stopping criterion = energy tolerance
  Energy initial, next-to-last, final = 
     -6132.76522878661  -6132.76524040443  -6132.76524040443
  Force two-norm initial, final = 0.030761242 2.3497521e-09
  Force max component initial, final = 0.011962251 1.7946689e-10
  Final line search alpha, max atom move = 0 0
  Iterations, force evaluations = 4127 4127

MPI task timing breakdown:
Section |  min time  |  avg time  |  max time  |%varavg| %total
---------------------------------------------------------------
Pair    | 1.6374     | 1.6374     | 1.6374     |   0.0 | 43.00
Neigh   | 0          | 0          | 0          |   0.0 |  0.00
Comm    | 0.028888   | 0.028888   | 0.028888   |   0.0 |  0.76
Output  | 0.00027167 | 0.00027167 | 0.00027167 |   0.0 |  0.01
Modify  | 1.3003     | 1.3003     | 1.3003     |   0.0 | 34.15
Other   |            | 0.8413     |            |       | 22.09

Nlocal:            687 ave         687 max         687 min
Histogram: 1 0 0 0 0 0 0 0 0 0
Nghost:           2373 ave        2373 max        2373 min
Histogram: 1 0 0 0 0 0 0 0 0 0
Neighs:          24674 ave       24674 max       24674 min
Histogram: 1 0 0 0 0 0 0 0 0 0

Total # of neighbors = 24674
Ave neighs/atom = 35.915575
Neighbor list builds = 0
Dangerous builds = 0
Per MPI rank memory allocation (min/avg/max) = 3.306 | 3.306 | 3.306 Mbytes
   Step          Temp          E_pair         E_mol          TotEng         Press     
      4127   0             -6132.7652      0             -6132.7652      2539.8706    
      4200   2.9582253e-18 -6132.7652      0             -6132.7652      2539.8706    
      4300   2.8616934e-18 -6132.7652      0             -6132.7652      2539.8706    
      4400   1.9562034e-18 -6132.7652      0             -6132.7652      2539.8706    
      4500   6.301809e-19  -6132.7652      0             -6132.7652      2539.8706    
      4561   1.4452175e-22 -6132.7652      0             -6132.7652      2539.8706    
Loop time of 0.404736 on 1 procs for 434 steps with 687 atoms

98.3% CPU use with 1 MPI tasks x no OpenMP threads

Minimization stats:
  Stopping criterion = energy tolerance
  Energy initial, next-to-last, final = 
     -6132.76524040443  -6132.76524040447  -6132.76524040447
  Force two-norm initial, final = 2.349752e-09 6.1185995e-10
  Force max component initial, final = 1.7946881e-10 4.6696162e-11
  Final line search alpha, max atom move = 0 0
  Iterations, force evaluations = 434 434

MPI task timing breakdown:
Section |  min time  |  avg time  |  max time  |%varavg| %total
---------------------------------------------------------------
Pair    | 0.1664     | 0.1664     | 0.1664     |   0.0 | 41.11
Neigh   | 0          | 0          | 0          |   0.0 |  0.00
Comm    | 0.0029075  | 0.0029075  | 0.0029075  |   0.0 |  0.72
Output  | 0.00013613 | 0.00013613 | 0.00013613 |   0.0 |  0.03
Modify  | 0.14341    | 0.14341    | 0.14341    |   0.0 | 35.43
Other   |            | 0.09188    |            |       | 22.70

Nlocal:            687 ave         687 max         687 min
Histogram: 1 0 0 0 0 0 0 0 0 0
Nghost:           2373 ave        2373 max        2373 min
Histogram: 1 0 0 0 0 0 0 0 0 0
Neighs:          24700 ave       24700 max       24700 min
Histogram: 1 0 0 0 0 0 0 0 0 0

Total # of neighbors = 24700
Ave neighs/atom = 35.953421
Neighbor list builds = 0
Dangerous builds = 0

write_dump all custom ../Neb_Dump/Bulk/Tet_Tet/Neb_Images/neb.$i.atom id type x y z 
write_dump all custom ../Neb_Dump/Bulk/Tet_Tet/Neb_Images/neb.6.atom id type x y z 
Total wall time: 0:00:04
