LAMMPS (2 Aug 2023)
Processor partition = 8

units metal

atom_style atomic

atom_modify map array sort 0 0.0

read_data ../Neb_Dump/Bulk/Tet_Tet/tet_0.data
Reading data file ...
  orthogonal box = (-0.0023797147 -0.0023645006 -0.0022710563) to (25.156148 25.156133 25.156039)
  1 by 1 by 1 MPI processor grid
  reading atoms ...
  1025 atoms
  reading velocities ...
  1025 velocities
  read_data CPU = 0.013 seconds

mass 1 183.84

mass 2 1.00784

mass 3 4.002602

pair_style eam/alloy

pair_coeff * * Potentials/WHHe_test.eam.alloy W H He

thermo 10

run 0
WARNING: No fixes with time integration, atoms won't move (src/verlet.cpp:60)
Neighbor list info ...
  update: every = 1 steps, delay = 0 steps, check = yes
  max neighbors/atom: 2000, page size: 100000
  master list distance cutoff = 6.8513889
  ghost atom cutoff = 6.8513889
  binsize = 3.4256945, bins = 8 8 8
  1 neighbor lists, perpetual/occasional/extra = 1 0 0
  (1) pair eam/alloy, perpetual
      attributes: half, newton on
      pair build: half/bin/atomonly/newton
      stencil: half/bin/3d
      bin: standard
Per MPI rank memory allocation (min/avg/max) = 3.324 | 3.324 | 3.324 Mbytes
   Step          Temp          E_pair         E_mol          TotEng         Press     
         0   0             -9157.7484      0             -9157.7484     -13.790055    
Loop time of 4.58e-07 on 1 procs for 0 steps with 1025 atoms

0.0% CPU use with 1 MPI tasks x no OpenMP threads

MPI task timing breakdown:
Section |  min time  |  avg time  |  max time  |%varavg| %total
---------------------------------------------------------------
Pair    | 0          | 0          | 0          |   0.0 |  0.00
Neigh   | 0          | 0          | 0          |   0.0 |  0.00
Comm    | 0          | 0          | 0          |   0.0 |  0.00
Output  | 0          | 0          | 0          |   0.0 |  0.00
Modify  | 0          | 0          | 0          |   0.0 |  0.00
Other   |            | 4.58e-07   |            |       |100.00

Nlocal:           1025 ave        1025 max        1025 min
Histogram: 1 0 0 0 0 0 0 0 0 0
Nghost:           2901 ave        2901 max        2901 min
Histogram: 1 0 0 0 0 0 0 0 0 0
Neighs:          34016 ave       34016 max       34016 min
Histogram: 1 0 0 0 0 0 0 0 0 0

Total # of neighbors = 34016
Ave neighs/atom = 33.186341
Neighbor list builds = 0
Dangerous builds = 0

fix 1 all neb 1e-4

timestep 1e-3

min_style quickmin

thermo 100

variable i equal part

neb 10e-8 10e-10 5000 5000 100 final ../Neb_Dump/Bulk/Tet_Tet/tet_1.atom
Per MPI rank memory allocation (min/avg/max) = 3.324 | 3.324 | 3.324 Mbytes
   Step          Temp          E_pair         E_mol          TotEng         Press     
         0   0             -9157.7484      0             -9157.7484     -13.1986      
        31   3.2861181e-05 -9157.7485      0             -9157.7485     -13.646366    
Loop time of 0.0481811 on 1 procs for 31 steps with 1025 atoms

97.3% CPU use with 1 MPI tasks x no OpenMP threads

Minimization stats:
  Stopping criterion = energy tolerance
  Energy initial, next-to-last, final = 
     -9157.74838789267  -9157.74846887966    -9157.748469004
  Force two-norm initial, final = 0.059393347 0.005853065
  Force max component initial, final = 0.0049389102 0.00031917177
  Final line search alpha, max atom move = 0 0
  Iterations, force evaluations = 31 31

MPI task timing breakdown:
Section |  min time  |  avg time  |  max time  |%varavg| %total
---------------------------------------------------------------
Pair    | 0.027851   | 0.027851   | 0.027851   |   0.0 | 57.81
Neigh   | 0          | 0          | 0          |   0.0 |  0.00
Comm    | 0.00054113 | 0.00054113 | 0.00054113 |   0.0 |  1.12
Output  | 0          | 0          | 0          |   0.0 |  0.00
Modify  | 0.0046418  | 0.0046418  | 0.0046418  |   0.0 |  9.63
Other   |            | 0.01515    |            |       | 31.44

Nlocal:           1025 ave        1025 max        1025 min
Histogram: 1 0 0 0 0 0 0 0 0 0
Nghost:           2901 ave        2901 max        2901 min
Histogram: 1 0 0 0 0 0 0 0 0 0
Neighs:          34027 ave       34027 max       34027 min
Histogram: 1 0 0 0 0 0 0 0 0 0

Total # of neighbors = 34027
Ave neighs/atom = 33.197073
Neighbor list builds = 0
Dangerous builds = 0
Per MPI rank memory allocation (min/avg/max) = 3.324 | 3.324 | 3.324 Mbytes
   Step          Temp          E_pair         E_mol          TotEng         Press     
        31   0             -9157.7485      0             -9157.7485     -13.646658    
        37   9.9969484e-06 -9157.7485      0             -9157.7485     -13.65008     
Loop time of 0.0118244 on 1 procs for 6 steps with 1025 atoms

99.0% CPU use with 1 MPI tasks x no OpenMP threads

Minimization stats:
  Stopping criterion = energy tolerance
  Energy initial, next-to-last, final = 
       -9157.748469004   -9157.7484691501  -9157.74846921558
  Force two-norm initial, final = 0.005853065 0.0056895867
  Force max component initial, final = 0.00031917177 0.00030807839
  Final line search alpha, max atom move = 0 0
  Iterations, force evaluations = 6 6

MPI task timing breakdown:
Section |  min time  |  avg time  |  max time  |%varavg| %total
---------------------------------------------------------------
Pair    | 0.004203   | 0.004203   | 0.004203   |   0.0 | 35.54
Neigh   | 0          | 0          | 0          |   0.0 |  0.00
Comm    | 6.0792e-05 | 6.0792e-05 | 6.0792e-05 |   0.0 |  0.51
Output  | 0          | 0          | 0          |   0.0 |  0.00
Modify  | 0.0056706  | 0.0056706  | 0.0056706  |   0.0 | 47.96
Other   |            | 0.00189    |            |       | 15.98

Nlocal:           1025 ave        1025 max        1025 min
Histogram: 1 0 0 0 0 0 0 0 0 0
Nghost:           2901 ave        2901 max        2901 min
Histogram: 1 0 0 0 0 0 0 0 0 0
Neighs:          34017 ave       34017 max       34017 min
Histogram: 1 0 0 0 0 0 0 0 0 0

Total # of neighbors = 34017
Ave neighs/atom = 33.187317
Neighbor list builds = 0
Dangerous builds = 0

write_dump all custom ../Neb_Dump/Bulk/Tet_Tet/Neb_Images/neb.$i.atom id type x y z 
write_dump all custom ../Neb_Dump/Bulk/Tet_Tet/Neb_Images/neb.8.atom id type x y z 
Total wall time: 0:00:00
