LAMMPS (2 Aug 2023)
Processor partition = 6

units metal

atom_style atomic

atom_modify map array sort 0 0.0

read_data ../Neb_Dump/Bulk/Tet_Tet/tet_0.data
Reading data file ...
  orthogonal box = (0.0023004304 -0.0095997436 -0.005064594) to (54.457205 51.354514 44.471064)
  1 by 1 by 1 MPI processor grid
  reading atoms ...
  8001 atoms
  reading velocities ...
  8001 velocities
  read_data CPU = 0.023 seconds

mass 1 183.84

mass 2 1.00784

mass 3 4.002602

pair_style eam/alloy

pair_coeff * * Potentials/Selected_Potentials/Potential_3/optim102.eam.alloy W H He

thermo 10

run 0
WARNING: No fixes with time integration, atoms won't move (src/verlet.cpp:60)
Neighbor list info ...
  update: every = 1 steps, delay = 0 steps, check = yes
  max neighbors/atom: 2000, page size: 100000
  master list distance cutoff = 6.8513889
  ghost atom cutoff = 6.8513889
  binsize = 3.4256945, bins = 16 15 13
  1 neighbor lists, perpetual/occasional/extra = 1 0 0
  (1) pair eam/alloy, perpetual
      attributes: half, newton on
      pair build: half/bin/atomonly/newton
      stencil: half/bin/3d
      bin: standard
Per MPI rank memory allocation (min/avg/max) = 7.397 | 7.397 | 7.397 Mbytes
   Step          Temp          E_pair         E_mol          TotEng         Press     
         0   0             -71571.216      0             -71571.216      127.26961    
Loop time of 3.75e-07 on 1 procs for 0 steps with 8001 atoms

266.7% CPU use with 1 MPI tasks x no OpenMP threads

MPI task timing breakdown:
Section |  min time  |  avg time  |  max time  |%varavg| %total
---------------------------------------------------------------
Pair    | 0          | 0          | 0          |   0.0 |  0.00
Neigh   | 0          | 0          | 0          |   0.0 |  0.00
Comm    | 0          | 0          | 0          |   0.0 |  0.00
Output  | 0          | 0          | 0          |   0.0 |  0.00
Modify  | 0          | 0          | 0          |   0.0 |  0.00
Other   |            | 3.75e-07   |            |       |100.00

Nlocal:           8001 ave        8001 max        8001 min
Histogram: 1 0 0 0 0 0 0 0 0 0
Nghost:           9280 ave        9280 max        9280 min
Histogram: 1 0 0 0 0 0 0 0 0 0
Neighs:         318089 ave      318089 max      318089 min
Histogram: 1 0 0 0 0 0 0 0 0 0

Total # of neighbors = 318089
Ave neighs/atom = 39.756155
Neighbor list builds = 0
Dangerous builds = 0

fix 1 all neb 1e-4

timestep 1e-3

min_style quickmin

thermo 100

variable i equal part

neb 10e-8 10e-10 5000 5000 100 final ../Neb_Dump/Bulk/Tet_Tet/tet_1.atom
Per MPI rank memory allocation (min/avg/max) = 7.397 | 7.397 | 7.397 Mbytes
   Step          Temp          E_pair         E_mol          TotEng         Press     
         0   0             -71571.216      0             -71571.216      127.2856     
        19   6.8336073e-07 -71571.216      0             -71571.216      127.27121    
Loop time of 0.197667 on 1 procs for 19 steps with 8001 atoms

99.5% CPU use with 1 MPI tasks x no OpenMP threads

Minimization stats:
  Stopping criterion = energy tolerance
  Energy initial, next-to-last, final = 
     -71571.2160002991  -71571.2161548903  -71571.2161548985
  Force two-norm initial, final = 0.089905893 0.00075752252
  Force max component initial, final = 0.0019718876 3.4389393e-05
  Final line search alpha, max atom move = 0 0
  Iterations, force evaluations = 19 19

MPI task timing breakdown:
Section |  min time  |  avg time  |  max time  |%varavg| %total
---------------------------------------------------------------
Pair    | 0.099155   | 0.099155   | 0.099155   |   0.0 | 50.16
Neigh   | 0          | 0          | 0          |   0.0 |  0.00
Comm    | 0.00073667 | 0.00073667 | 0.00073667 |   0.0 |  0.37
Output  | 0          | 0          | 0          |   0.0 |  0.00
Modify  | 0.058979   | 0.058979   | 0.058979   |   0.0 | 29.84
Other   |            | 0.0388     |            |       | 19.63

Nlocal:           8001 ave        8001 max        8001 min
Histogram: 1 0 0 0 0 0 0 0 0 0
Nghost:           9280 ave        9280 max        9280 min
Histogram: 1 0 0 0 0 0 0 0 0 0
Neighs:         318003 ave      318003 max      318003 min
Histogram: 1 0 0 0 0 0 0 0 0 0

Total # of neighbors = 318003
Ave neighs/atom = 39.745407
Neighbor list builds = 0
Dangerous builds = 0
Per MPI rank memory allocation (min/avg/max) = 7.397 | 7.397 | 7.397 Mbytes
   Step          Temp          E_pair         E_mol          TotEng         Press     
        19   0             -71571.216      0             -71571.216      127.2712     
        25   2.2771205e-07 -71571.216      0             -71571.216      127.27117    
Loop time of 0.0607347 on 1 procs for 6 steps with 8001 atoms

99.3% CPU use with 1 MPI tasks x no OpenMP threads

Minimization stats:
  Stopping criterion = energy tolerance
  Energy initial, next-to-last, final = 
     -71571.2161548985  -71571.2161549072   -71571.216154907
  Force two-norm initial, final = 0.00075752252 0.00071833674
  Force max component initial, final = 3.4389393e-05 3.3024413e-05
  Final line search alpha, max atom move = 0 0
  Iterations, force evaluations = 6 6

MPI task timing breakdown:
Section |  min time  |  avg time  |  max time  |%varavg| %total
---------------------------------------------------------------
Pair    | 0.032205   | 0.032205   | 0.032205   |   0.0 | 53.03
Neigh   | 0          | 0          | 0          |   0.0 |  0.00
Comm    | 0.00024084 | 0.00024084 | 0.00024084 |   0.0 |  0.40
Output  | 0          | 0          | 0          |   0.0 |  0.00
Modify  | 0.02163    | 0.02163    | 0.02163    |   0.0 | 35.61
Other   |            | 0.006659   |            |       | 10.96

Nlocal:           8001 ave        8001 max        8001 min
Histogram: 1 0 0 0 0 0 0 0 0 0
Nghost:           9280 ave        9280 max        9280 min
Histogram: 1 0 0 0 0 0 0 0 0 0
Neighs:         318077 ave      318077 max      318077 min
Histogram: 1 0 0 0 0 0 0 0 0 0

Total # of neighbors = 318077
Ave neighs/atom = 39.754656
Neighbor list builds = 0
Dangerous builds = 0

write_dump all custom ../Neb_Dump/Bulk/Tet_Tet/Neb_Images/neb.$i.atom id type x y z 
write_dump all custom ../Neb_Dump/Bulk/Tet_Tet/Neb_Images/neb.6.atom id type x y z 
Total wall time: 0:00:00
