LAMMPS (2 Aug 2023)
Running on 8 partitions of processors
    Step     MaxReplicaForce  MaxAtomForce      GradV0         GradV1         GradVc          EBF            EBR            RDT            RD1            PE1            RD2            PE2            RD3            PE3            RD4            PE4            RD5            PE5            RD6            PE6            RD7            PE7            RD8            PE8       
         0   3.2789945        2.5638452      0.017784647    0.24002716     3.3098076      0.42343881     0.4218392      1.1384727      0              -30923.856     0.14285714     -30923.752     0.28571429     -30923.565     0.42857143     -30923.433     0.57142857     -30923.432     0.71428571     -30923.565     0.85714286     -30923.751     1              -30923.854     
        31   0.20138902       0.0021976606   0.0029618796   0.0089690233   0.34717094     0.18553987     0.18545131     1.288499       0              -30923.856     0.1539022      -30923.841     0.30399596     -30923.76      0.43679955     -30923.67      0.56327972     -30923.67      0.6960891      -30923.761     0.84626947     -30923.841     1              -30923.856     
Climbing replica = 4
    Step     MaxReplicaForce  MaxAtomForce      GradV0         GradV1         GradVc          EBF            EBR            RDT            RD1            PE1            RD2            PE2            RD3            PE3            RD4            PE4            RD5            PE5            RD6            PE6            RD7            PE7            RD8            PE8       
        31   0.34717094       0.063283226    0.0029618796   0.0089690233   0.34717094     0.18553987     0.18545131     1.288499       0              -30923.856     0.1539022      -30923.841     0.30399596     -30923.76      0.43679955     -30923.67      0.56327972     -30923.67      0.6960891      -30923.761     0.84626947     -30923.841     1              -30923.856     
        49   0.022775958      0.00028863097  0.0013158028   0.0041074388   0.022775958    0.19841166     0.19834528     1.3050083      0              -30923.856     0.15631247     -30923.842     0.30639875     -30923.761     0.49667581     -30923.657     0.5621365      -30923.671     0.69330299     -30923.762     0.84388147     -30923.842     1              -30923.856     
