LAMMPS (2 Aug 2023)
Processor partition = 1

units metal

atom_style atomic

atom_modify map array sort 0 0.0

read_data ../Neb_Dump/Bulk/Tet_Tet/tet_0.data
Reading data file ...
  orthogonal box = (0.0022980543 -0.0096010385 -0.005062638) to (54.457207 51.354515 44.471062)
  1 by 1 by 1 MPI processor grid
  reading atoms ...
  8001 atoms
  reading velocities ...
  8001 velocities
  read_data CPU = 0.018 seconds

mass 1 183.84

mass 2 1.00784

mass 3 4.002602

pair_style eam/alloy

pair_coeff * * Potentials/Selected_Potentials/Potential_3/optim102.eam.alloy W H He

thermo 10

run 0
WARNING: No fixes with time integration, atoms won't move (src/verlet.cpp:60)
Neighbor list info ...
  update: every = 1 steps, delay = 0 steps, check = yes
  max neighbors/atom: 2000, page size: 100000
  master list distance cutoff = 6.8513889
  ghost atom cutoff = 6.8513889
  binsize = 3.4256945, bins = 16 15 13
  1 neighbor lists, perpetual/occasional/extra = 1 0 0
  (1) pair eam/alloy, perpetual
      attributes: half, newton on
      pair build: half/bin/atomonly/newton
      stencil: half/bin/3d
      bin: standard
Per MPI rank memory allocation (min/avg/max) = 7.397 | 7.397 | 7.397 Mbytes
   Step          Temp          E_pair         E_mol          TotEng         Press     
         0   0             -71571.216      0             -71571.216      127.09315    
Loop time of 5e-07 on 1 procs for 0 steps with 8001 atoms

0.0% CPU use with 1 MPI tasks x no OpenMP threads

MPI task timing breakdown:
Section |  min time  |  avg time  |  max time  |%varavg| %total
---------------------------------------------------------------
Pair    | 0          | 0          | 0          |   0.0 |  0.00
Neigh   | 0          | 0          | 0          |   0.0 |  0.00
Comm    | 0          | 0          | 0          |   0.0 |  0.00
Output  | 0          | 0          | 0          |   0.0 |  0.00
Modify  | 0          | 0          | 0          |   0.0 |  0.00
Other   |            | 5e-07      |            |       |100.00

Nlocal:           8001 ave        8001 max        8001 min
Histogram: 1 0 0 0 0 0 0 0 0 0
Nghost:           9280 ave        9280 max        9280 min
Histogram: 1 0 0 0 0 0 0 0 0 0
Neighs:         318088 ave      318088 max      318088 min
Histogram: 1 0 0 0 0 0 0 0 0 0

Total # of neighbors = 318088
Ave neighs/atom = 39.75603
Neighbor list builds = 0
Dangerous builds = 0

fix 1 all neb 1e-4

timestep 1e-3

min_style quickmin

thermo 100

variable i equal part

neb 10e-8 10e-10 5000 5000 100 final ../Neb_Dump/Bulk/Tet_Tet/tet_1.atom
Per MPI rank memory allocation (min/avg/max) = 7.397 | 7.397 | 7.397 Mbytes
   Step          Temp          E_pair         E_mol          TotEng         Press     
         0   0             -71568.544      0             -71568.544      203.35351    
        19   0.016833121   -71571.153      0             -71571.136      126.75621    
Loop time of 0.22749 on 1 procs for 19 steps with 8001 atoms

96.1% CPU use with 1 MPI tasks x no OpenMP threads

Minimization stats:
  Stopping criterion = energy tolerance
  Energy initial, next-to-last, final = 
     -71568.5440234161  -71571.1529545251  -71571.1532014088
  Force two-norm initial, final = 18.016631 0.15152266
  Force max component initial, final = 14.442905 0.06494657
  Final line search alpha, max atom move = 0 0
  Iterations, force evaluations = 19 19

MPI task timing breakdown:
Section |  min time  |  avg time  |  max time  |%varavg| %total
---------------------------------------------------------------
Pair    | 0.104      | 0.104      | 0.104      |   0.0 | 45.72
Neigh   | 0          | 0          | 0          |   0.0 |  0.00
Comm    | 0.00085541 | 0.00085541 | 0.00085541 |   0.0 |  0.38
Output  | 0          | 0          | 0          |   0.0 |  0.00
Modify  | 0.097623   | 0.097623   | 0.097623   |   0.0 | 42.91
Other   |            | 0.02501    |            |       | 10.99

Nlocal:           8001 ave        8001 max        8001 min
Histogram: 1 0 0 0 0 0 0 0 0 0
Nghost:           9280 ave        9280 max        9280 min
Histogram: 1 0 0 0 0 0 0 0 0 0
Neighs:         318103 ave      318103 max      318103 min
Histogram: 1 0 0 0 0 0 0 0 0 0

Total # of neighbors = 318103
Ave neighs/atom = 39.757905
Neighbor list builds = 0
Dangerous builds = 0
Per MPI rank memory allocation (min/avg/max) = 7.397 | 7.397 | 7.397 Mbytes
   Step          Temp          E_pair         E_mol          TotEng         Press     
        19   0             -71571.153      0             -71571.153      126.60676    
        25   0.0071632822  -71571.154      0             -71571.146      126.60667    
Loop time of 0.0731704 on 1 procs for 6 steps with 8001 atoms

94.1% CPU use with 1 MPI tasks x no OpenMP threads

Minimization stats:
  Stopping criterion = energy tolerance
  Energy initial, next-to-last, final = 
     -71571.1532014088  -71571.1535186256  -71571.1536779137
  Force two-norm initial, final = 0.15152266 0.14577244
  Force max component initial, final = 0.06494657 0.06429535
  Final line search alpha, max atom move = 0 0
  Iterations, force evaluations = 6 6

MPI task timing breakdown:
Section |  min time  |  avg time  |  max time  |%varavg| %total
---------------------------------------------------------------
Pair    | 0.041462   | 0.041462   | 0.041462   |   0.0 | 56.66
Neigh   | 0          | 0          | 0          |   0.0 |  0.00
Comm    | 0.00035946 | 0.00035946 | 0.00035946 |   0.0 |  0.49
Output  | 0          | 0          | 0          |   0.0 |  0.00
Modify  | 0.020837   | 0.020837   | 0.020837   |   0.0 | 28.48
Other   |            | 0.01051    |            |       | 14.37

Nlocal:           8001 ave        8001 max        8001 min
Histogram: 1 0 0 0 0 0 0 0 0 0
Nghost:           9280 ave        9280 max        9280 min
Histogram: 1 0 0 0 0 0 0 0 0 0
Neighs:         318124 ave      318124 max      318124 min
Histogram: 1 0 0 0 0 0 0 0 0 0

Total # of neighbors = 318124
Ave neighs/atom = 39.76053
Neighbor list builds = 0
Dangerous builds = 0

write_dump all custom ../Neb_Dump/Bulk/Tet_Tet/Neb_Images/neb.$i.atom id type x y z 
write_dump all custom ../Neb_Dump/Bulk/Tet_Tet/Neb_Images/neb.1.atom id type x y z 
Total wall time: 0:00:00
