LAMMPS (2 Aug 2023)
Running on 9 partitions of processors
    Step     MaxReplicaForce  MaxAtomForce      GradV0         GradV1         GradVc          EBF            EBR            RDT            RD1            PE1            RD2            PE2            RD3            PE3            RD4            PE4            RD5            PE5            RD6            PE6            RD7            PE7            RD8            PE8            RD9            PE9       
         0   1085.6201        411542.05      0.0003613195   0.089862699    1085.6201      152.69469      152.69453      3.3694555      0              -71571.216     0.125          -71568.544     0.25           -71551.984     0.375          -71492.915     0.5            -71418.521     0.625          -71492.912     0.75           -71551.982     0.875          -71568.544     1              -71571.216     
        19   0.57293844       0.14829375     9.4827878e-05  0.00070214718  0.55518674     0.2940185      0.29401837     4.3984453      0              -71571.216     0.084462303    -71571.153     0.18298451     -71570.922     0.34139531     -71571.19      0.50000456     -71570.945     0.658611       -71571.19      0.81701895     -71570.922     0.91553688     -71571.153     1              -71571.216     
Climbing replica = 7
    Step     MaxReplicaForce  MaxAtomForce      GradV0         GradV1         GradVc          EBF            EBR            RDT            RD1            PE1            RD2            PE2            RD3            PE3            RD4            PE4            RD5            PE5            RD6            PE6            RD7            PE7            RD8            PE8            RD9            PE9       
        19   0.57293844       0.20627306     9.4827878e-05  0.00070214718  0.55518674     0.2940185      0.29401837     4.3984453      0              -71571.216     0.084462303    -71571.153     0.18298451     -71570.922     0.34139531     -71571.19      0.50000456     -71570.945     0.658611       -71571.19      0.81701895     -71570.922     0.91553688     -71571.153     1              -71571.216     
        25   0.57441605       0.20701202     9.3713121e-05  0.00066441156  0.57441605     0.28910531     0.28910519     4.4128915      0              -71571.216     0.08404161     -71571.154     0.18289742     -71570.928     0.34148833     -71571.191     0.50001634     -71570.951     0.65854147     -71571.191     0.8161287      -71570.927     0.91595719     -71571.154     1              -71571.216     
