LAMMPS (2 Aug 2023)
Running on 6 partitions of processors
    Step     MaxReplicaForce  MaxAtomForce      GradV0         GradV1         GradVc          EBF            EBR            RDT            RD1            PE1            RD2            PE2            RD3            PE3            RD4            PE4            RD5            PE5            RD6            PE6       
         0   118.43983        6752.6812      0.0052460063   0.50781776     128.30591      29.072408      22.295068      12.64654       0              -31517.304     0.2            -31506.355     0.4            -31500.685     0.6            -31488.231     0.8            -31498.789     1              -31510.527     
        39   0.84410851       0.32887941     0.00045345416  0.21644197     1.0200696      7.0874876      0.31621656     13.381897      0              -31517.304     0.19996439     -31511.962     0.40325579     -31510.216     0.6020105      -31510.408     0.80036719     -31510.319     1              -31510.533     
Climbing replica = 3
    Step     MaxReplicaForce  MaxAtomForce      GradV0         GradV1         GradVc          EBF            EBR            RDT            RD1            PE1            RD2            PE2            RD3            PE3            RD4            PE4            RD5            PE5            RD6            PE6       
        39   1.0200696        0.83431316     0.00045345416  0.21644197     1.0200696      7.0874876      0.31621656     13.381897      0              -31517.304     0.19996439     -31511.962     0.40325579     -31510.216     0.6020105      -31510.408     0.80036719     -31510.319     1              -31510.533     
       139   1.342177         0.48903659     3.0656651e-05  0.12048932     1.342177       7.0873128      0.3164118      13.48821       0              -31517.304     0.1998555      -31512.514     0.29419278     -31510.217     0.60408697     -31510.424     0.80183254     -31510.325     1              -31510.533     
       141   1.3603288        0.47541613     3.0367259e-05  0.14534858     1.3603288      7.0809188      0.31001145     13.485557      0              -31517.304     0.19998008     -31512.516     0.29442841     -31510.223     0.60400701     -31510.424     0.80179383     -31510.325     1              -31510.533     
