LAMMPS (2 Aug 2023)
Processor partition = 1

units metal

atom_style atomic

atom_modify map array sort 0 0.0

read_data ../Lammps_Dump/Bulk/tet_1.data
Reading data file ...
  orthogonal box = (-0.00034869473 -0.00080330488 -0.00080155278) to (37.731001 37.731455 37.731454)
  1 by 1 by 1 MPI processor grid
  reading atoms ...
  3457 atoms
  reading velocities ...
  3457 velocities
  read_data CPU = 0.012 seconds

mass 1 183.84

mass 2 1.00784

mass 3 4.002602

pair_style eam/alloy

pair_coeff * * Potentials/Selected_Potentials/Potential_3/optim102.eam.alloy W H He

thermo 10

run 0
WARNING: No fixes with time integration, atoms won't move (src/verlet.cpp:60)
Neighbor list info ...
  update: every = 1 steps, delay = 0 steps, check = yes
  max neighbors/atom: 2000, page size: 100000
  master list distance cutoff = 6.8513889
  ghost atom cutoff = 6.8513889
  binsize = 3.4256945, bins = 12 12 12
  1 neighbor lists, perpetual/occasional/extra = 1 0 0
  (1) pair eam/alloy, perpetual
      attributes: half, newton on
      pair build: half/bin/atomonly/newton
      stencil: half/bin/3d
      bin: standard
Per MPI rank memory allocation (min/avg/max) = 3.879 | 3.879 | 3.879 Mbytes
   Step          Temp          E_pair         E_mol          TotEng         Press     
         0   0             -30923.856      0             -30923.856      0.19429698   
Loop time of 3.33e-07 on 1 procs for 0 steps with 3457 atoms

300.3% CPU use with 1 MPI tasks x no OpenMP threads

MPI task timing breakdown:
Section |  min time  |  avg time  |  max time  |%varavg| %total
---------------------------------------------------------------
Pair    | 0          | 0          | 0          |   0.0 |  0.00
Neigh   | 0          | 0          | 0          |   0.0 |  0.00
Comm    | 0          | 0          | 0          |   0.0 |  0.00
Output  | 0          | 0          | 0          |   0.0 |  0.00
Modify  | 0          | 0          | 0          |   0.0 |  0.00
Other   |            | 3.33e-07   |            |       |100.00

Nlocal:           3457 ave        3457 max        3457 min
Histogram: 1 0 0 0 0 0 0 0 0 0
Nghost:           5553 ave        5553 max        5553 min
Histogram: 1 0 0 0 0 0 0 0 0 0
Neighs:         111788 ave      111788 max      111788 min
Histogram: 1 0 0 0 0 0 0 0 0 0

Total # of neighbors = 111788
Ave neighs/atom = 32.336708
Neighbor list builds = 0
Dangerous builds = 0

fix 1 all neb 1e-4

timestep 1e-3

min_style quickmin

thermo 100

variable i equal part

neb 1e-8 1e-10 5000 5000 100 final ../Lammps_Dump/Bulk/tet_2.atom
Per MPI rank memory allocation (min/avg/max) = 3.879 | 3.879 | 3.879 Mbytes
   Step          Temp          E_pair         E_mol          TotEng         Press     
         0   0             -30923.752      0             -30923.752      13.624326    
        31   0.35023335    -30923.841      0             -30923.685     -9.5925333    
Loop time of 0.136488 on 1 procs for 31 steps with 3457 atoms

97.8% CPU use with 1 MPI tasks x no OpenMP threads

Minimization stats:
  Stopping criterion = energy tolerance
  Energy initial, next-to-last, final = 
     -30923.7518569969  -30923.8408351859  -30923.8409846799
  Force two-norm initial, final = 1.715378 0.093238041
  Force max component initial, final = 0.91609025 0.035442028
  Final line search alpha, max atom move = 0 0
  Iterations, force evaluations = 31 31

MPI task timing breakdown:
Section |  min time  |  avg time  |  max time  |%varavg| %total
---------------------------------------------------------------
Pair    | 0.070222   | 0.070222   | 0.070222   |   0.0 | 51.45
Neigh   | 0          | 0          | 0          |   0.0 |  0.00
Comm    | 0.0008035  | 0.0008035  | 0.0008035  |   0.0 |  0.59
Output  | 0          | 0          | 0          |   0.0 |  0.00
Modify  | 0.045885   | 0.045885   | 0.045885   |   0.0 | 33.62
Other   |            | 0.01958    |            |       | 14.34

Nlocal:           3457 ave        3457 max        3457 min
Histogram: 1 0 0 0 0 0 0 0 0 0
Nghost:           5553 ave        5553 max        5553 min
Histogram: 1 0 0 0 0 0 0 0 0 0
Neighs:         111760 ave      111760 max      111760 min
Histogram: 1 0 0 0 0 0 0 0 0 0

Total # of neighbors = 111760
Ave neighs/atom = 32.328609
Neighbor list builds = 0
Dangerous builds = 0
Per MPI rank memory allocation (min/avg/max) = 3.879 | 3.879 | 3.879 Mbytes
   Step          Temp          E_pair         E_mol          TotEng         Press     
        31   0             -30923.841      0             -30923.841     -12.703441    
        49   0.067351424   -30923.842      0             -30923.811     -13.03016     
Loop time of 0.0900383 on 1 procs for 18 steps with 3457 atoms

98.3% CPU use with 1 MPI tasks x no OpenMP threads

Minimization stats:
  Stopping criterion = energy tolerance
  Energy initial, next-to-last, final = 
     -30923.8409846798   -30923.841494536   -30923.841525787
  Force two-norm initial, final = 0.093238041 0.011371499
  Force max component initial, final = 0.035442028 0.0053346385
  Final line search alpha, max atom move = 0 0
  Iterations, force evaluations = 18 18

MPI task timing breakdown:
Section |  min time  |  avg time  |  max time  |%varavg| %total
---------------------------------------------------------------
Pair    | 0.045671   | 0.045671   | 0.045671   |   0.0 | 50.72
Neigh   | 0          | 0          | 0          |   0.0 |  0.00
Comm    | 0.00049287 | 0.00049287 | 0.00049287 |   0.0 |  0.55
Output  | 0          | 0          | 0          |   0.0 |  0.00
Modify  | 0.033019   | 0.033019   | 0.033019   |   0.0 | 36.67
Other   |            | 0.01085    |            |       | 12.06

Nlocal:           3457 ave        3457 max        3457 min
Histogram: 1 0 0 0 0 0 0 0 0 0
Nghost:           5553 ave        5553 max        5553 min
Histogram: 1 0 0 0 0 0 0 0 0 0
Neighs:         111722 ave      111722 max      111722 min
Histogram: 1 0 0 0 0 0 0 0 0 0

Total # of neighbors = 111722
Ave neighs/atom = 32.317616
Neighbor list builds = 0
Dangerous builds = 0

write_dump all custom ../Lammps_Dump/Bulk/tet/neb.$i.dump id type x y z 
write_dump all custom ../Lammps_Dump/Bulk/tet/neb.1.dump id type x y z 
Total wall time: 0:00:00
