LAMMPS (2 Aug 2023)
Processor partition = 6

units metal

atom_style atomic

atom_modify map array sort 0 0.0

read_data ../Lammps_Dump/Bulk/tet_1.data
Reading data file ...
  orthogonal box = (-0.00034869473 -0.00080330488 -0.00080155278) to (37.731001 37.731455 37.731454)
  1 by 1 by 1 MPI processor grid
  reading atoms ...
  3457 atoms
  reading velocities ...
  3457 velocities
  read_data CPU = 0.012 seconds

mass 1 183.84

mass 2 1.00784

mass 3 4.002602

pair_style eam/alloy

pair_coeff * * Potentials/Selected_Potentials/Potential_3/optim102.eam.alloy W H He

thermo 10

run 0
WARNING: No fixes with time integration, atoms won't move (src/verlet.cpp:60)
Neighbor list info ...
  update: every = 1 steps, delay = 0 steps, check = yes
  max neighbors/atom: 2000, page size: 100000
  master list distance cutoff = 6.8513889
  ghost atom cutoff = 6.8513889
  binsize = 3.4256945, bins = 12 12 12
  1 neighbor lists, perpetual/occasional/extra = 1 0 0
  (1) pair eam/alloy, perpetual
      attributes: half, newton on
      pair build: half/bin/atomonly/newton
      stencil: half/bin/3d
      bin: standard
Per MPI rank memory allocation (min/avg/max) = 3.879 | 3.879 | 3.879 Mbytes
   Step          Temp          E_pair         E_mol          TotEng         Press     
         0   0             -30923.856      0             -30923.856      0.19429698   
Loop time of 3.75e-07 on 1 procs for 0 steps with 3457 atoms

0.0% CPU use with 1 MPI tasks x no OpenMP threads

MPI task timing breakdown:
Section |  min time  |  avg time  |  max time  |%varavg| %total
---------------------------------------------------------------
Pair    | 0          | 0          | 0          |   0.0 |  0.00
Neigh   | 0          | 0          | 0          |   0.0 |  0.00
Comm    | 0          | 0          | 0          |   0.0 |  0.00
Output  | 0          | 0          | 0          |   0.0 |  0.00
Modify  | 0          | 0          | 0          |   0.0 |  0.00
Other   |            | 3.75e-07   |            |       |100.00

Nlocal:           3457 ave        3457 max        3457 min
Histogram: 1 0 0 0 0 0 0 0 0 0
Nghost:           5553 ave        5553 max        5553 min
Histogram: 1 0 0 0 0 0 0 0 0 0
Neighs:         111788 ave      111788 max      111788 min
Histogram: 1 0 0 0 0 0 0 0 0 0

Total # of neighbors = 111788
Ave neighs/atom = 32.336708
Neighbor list builds = 0
Dangerous builds = 0

fix 1 all neb 1e-4

timestep 1e-3

min_style quickmin

thermo 100

variable i equal part

neb 1e-8 1e-10 5000 5000 100 final ../Lammps_Dump/Bulk/tet_2.atom
Per MPI rank memory allocation (min/avg/max) = 3.879 | 3.879 | 3.879 Mbytes
   Step          Temp          E_pair         E_mol          TotEng         Press     
         0   0             -30923.751      0             -30923.751      16.197161    
        31   0.34403946    -30923.841      0             -30923.687     -9.6217462    
Loop time of 0.136489 on 1 procs for 31 steps with 3457 atoms

96.6% CPU use with 1 MPI tasks x no OpenMP threads

Minimization stats:
  Stopping criterion = energy tolerance
  Energy initial, next-to-last, final = 
      -30923.750888893  -30923.8408466003   -30923.840998625
  Force two-norm initial, final = 1.7257614 0.093304854
  Force max component initial, final = 0.91839332 0.033104342
  Final line search alpha, max atom move = 0 0
  Iterations, force evaluations = 31 31

MPI task timing breakdown:
Section |  min time  |  avg time  |  max time  |%varavg| %total
---------------------------------------------------------------
Pair    | 0.072198   | 0.072198   | 0.072198   |   0.0 | 52.90
Neigh   | 0          | 0          | 0          |   0.0 |  0.00
Comm    | 0.00093217 | 0.00093217 | 0.00093217 |   0.0 |  0.68
Output  | 0          | 0          | 0          |   0.0 |  0.00
Modify  | 0.045648   | 0.045648   | 0.045648   |   0.0 | 33.44
Other   |            | 0.01771    |            |       | 12.98

Nlocal:           3457 ave        3457 max        3457 min
Histogram: 1 0 0 0 0 0 0 0 0 0
Nghost:           5553 ave        5553 max        5553 min
Histogram: 1 0 0 0 0 0 0 0 0 0
Neighs:         111791 ave      111791 max      111791 min
Histogram: 1 0 0 0 0 0 0 0 0 0

Total # of neighbors = 111791
Ave neighs/atom = 32.337576
Neighbor list builds = 0
Dangerous builds = 0
Per MPI rank memory allocation (min/avg/max) = 3.879 | 3.879 | 3.879 Mbytes
   Step          Temp          E_pair         E_mol          TotEng         Press     
        31   0             -30923.841      0             -30923.841     -12.677637    
        49   0.06982443    -30923.842      0             -30923.81      -13.013483    
Loop time of 0.0900348 on 1 procs for 18 steps with 3457 atoms

92.0% CPU use with 1 MPI tasks x no OpenMP threads

Minimization stats:
  Stopping criterion = energy tolerance
  Energy initial, next-to-last, final = 
     -30923.8409986249  -30923.8415139238  -30923.8415457526
  Force two-norm initial, final = 0.093304854 0.011456383
  Force max component initial, final = 0.033104342 0.0056385102
  Final line search alpha, max atom move = 0 0
  Iterations, force evaluations = 18 18

MPI task timing breakdown:
Section |  min time  |  avg time  |  max time  |%varavg| %total
---------------------------------------------------------------
Pair    | 0.040629   | 0.040629   | 0.040629   |   0.0 | 45.13
Neigh   | 0          | 0          | 0          |   0.0 |  0.00
Comm    | 0.00038662 | 0.00038662 | 0.00038662 |   0.0 |  0.43
Output  | 0          | 0          | 0          |   0.0 |  0.00
Modify  | 0.038703   | 0.038703   | 0.038703   |   0.0 | 42.99
Other   |            | 0.01032    |            |       | 11.46

Nlocal:           3457 ave        3457 max        3457 min
Histogram: 1 0 0 0 0 0 0 0 0 0
Nghost:           5553 ave        5553 max        5553 min
Histogram: 1 0 0 0 0 0 0 0 0 0
Neighs:         111740 ave      111740 max      111740 min
Histogram: 1 0 0 0 0 0 0 0 0 0

Total # of neighbors = 111740
Ave neighs/atom = 32.322823
Neighbor list builds = 0
Dangerous builds = 0

write_dump all custom ../Lammps_Dump/Bulk/tet/neb.$i.dump id type x y z 
write_dump all custom ../Lammps_Dump/Bulk/tet/neb.6.dump id type x y z 
Total wall time: 0:00:00
