LAMMPS (2 Aug 2023)
Processor partition = 5

units metal

atom_style atomic

atom_modify map array sort 0 0.0

read_data ../Neb_Dump/Surface/110/init_simple.data
Reading data file ...
  orthogonal box = (0.039973222 0.09450966 -22.325896) to (53.319227 37.636142 75.685096)
  1 by 1 by 1 MPI processor grid
  reading atoms ...
  7201 atoms
  reading velocities ...
  7201 velocities
  read_data CPU = 0.024 seconds

mass 1 183.84

mass 2 1.00784

mass 3 4.002602

pair_style eam/alloy

pair_coeff * * Potentials/Selected_Potentials/Potential_3/optim102.eam.alloy W H He

thermo 10

run 0
WARNING: No fixes with time integration, atoms won't move (src/verlet.cpp:60)
Neighbor list info ...
  update: every = 1 steps, delay = 0 steps, check = yes
  max neighbors/atom: 2000, page size: 100000
  master list distance cutoff = 6.8513889
  ghost atom cutoff = 6.8513889
  binsize = 3.4256945, bins = 16 11 29
  1 neighbor lists, perpetual/occasional/extra = 1 0 0
  (1) pair eam/alloy, perpetual
      attributes: half, newton on
      pair build: half/bin/atomonly/newton
      stencil: half/bin/3d
      bin: standard
Per MPI rank memory allocation (min/avg/max) = 4.424 | 4.424 | 4.424 Mbytes
   Step          Temp          E_pair         E_mol          TotEng         Press     
         0   0             -63556.567      0             -63556.567      0.0048437744 
Loop time of 4.58e-07 on 1 procs for 0 steps with 7201 atoms

218.3% CPU use with 1 MPI tasks x no OpenMP threads

MPI task timing breakdown:
Section |  min time  |  avg time  |  max time  |%varavg| %total
---------------------------------------------------------------
Pair    | 0          | 0          | 0          |   0.0 |  0.00
Neigh   | 0          | 0          | 0          |   0.0 |  0.00
Comm    | 0          | 0          | 0          |   0.0 |  0.00
Output  | 0          | 0          | 0          |   0.0 |  0.00
Modify  | 0          | 0          | 0          |   0.0 |  0.00
Other   |            | 4.58e-07   |            |       |100.00

Nlocal:           7201 ave        7201 max        7201 min
Histogram: 1 0 0 0 0 0 0 0 0 0
Nghost:           5587 ave        5587 max        5587 min
Histogram: 1 0 0 0 0 0 0 0 0 0
Neighs:         290901 ave      290901 max      290901 min
Histogram: 1 0 0 0 0 0 0 0 0 0

Total # of neighbors = 290901
Ave neighs/atom = 40.397306
Neighbor list builds = 0
Dangerous builds = 0

fix 1 all neb 1e-4

timestep 1e-3

min_style quickmin

thermo 100

variable i equal part

neb 10e-8 10e-10 5000 5000 100 final ../Neb_Dump/Surface/110/final_simple.atom
Per MPI rank memory allocation (min/avg/max) = 4.426 | 4.426 | 4.426 Mbytes
   Step          Temp          E_pair         E_mol          TotEng         Press     
         0   0             -63510.321      0             -63510.321      469.89443    
        53   0.079101411   -63550.284      0             -63550.21       9.3617033    
Loop time of 0.525788 on 1 procs for 53 steps with 7201 atoms

92.4% CPU use with 1 MPI tasks x no OpenMP threads

Minimization stats:
  Stopping criterion = energy tolerance
  Energy initial, next-to-last, final = 
     -63510.3208068257  -63550.2835862455  -63550.2837440122
  Force two-norm initial, final = 186.85447 0.069028947
  Force max component initial, final = 164.54046 0.021578642
  Final line search alpha, max atom move = 0 0
  Iterations, force evaluations = 53 53

MPI task timing breakdown:
Section |  min time  |  avg time  |  max time  |%varavg| %total
---------------------------------------------------------------
Pair    | 0.29233    | 0.29233    | 0.29233    |   0.0 | 55.60
Neigh   | 0.0060675  | 0.0060675  | 0.0060675  |   0.0 |  1.15
Comm    | 0.0020161  | 0.0020161  | 0.0020161  |   0.0 |  0.38
Output  | 0          | 0          | 0          |   0.0 |  0.00
Modify  | 0.19446    | 0.19446    | 0.19446    |   0.0 | 36.99
Other   |            | 0.03091    |            |       |  5.88

Nlocal:           7201 ave        7201 max        7201 min
Histogram: 1 0 0 0 0 0 0 0 0 0
Nghost:           5587 ave        5587 max        5587 min
Histogram: 1 0 0 0 0 0 0 0 0 0
Neighs:         290825 ave      290825 max      290825 min
Histogram: 1 0 0 0 0 0 0 0 0 0

Total # of neighbors = 290825
Ave neighs/atom = 40.386752
Neighbor list builds = 1
Dangerous builds = 0
Per MPI rank memory allocation (min/avg/max) = 4.426 | 4.426 | 4.426 Mbytes
   Step          Temp          E_pair         E_mol          TotEng         Press     
        53   0             -63550.284      0             -63550.284      8.9606017    
        59   0.0020200748  -63550.284      0             -63550.282      8.615785     
Loop time of 0.077247 on 1 procs for 6 steps with 7201 atoms

90.6% CPU use with 1 MPI tasks x no OpenMP threads

Minimization stats:
  Stopping criterion = energy tolerance
  Energy initial, next-to-last, final = 
      -63550.283744012  -63550.2838142125  -63550.2838440569
  Force two-norm initial, final = 0.069028947 0.061205577
  Force max component initial, final = 0.021578643 0.021386632
  Final line search alpha, max atom move = 0 0
  Iterations, force evaluations = 6 6

MPI task timing breakdown:
Section |  min time  |  avg time  |  max time  |%varavg| %total
---------------------------------------------------------------
Pair    | 0.039043   | 0.039043   | 0.039043   |   0.0 | 50.54
Neigh   | 0          | 0          | 0          |   0.0 |  0.00
Comm    | 0.0002165  | 0.0002165  | 0.0002165  |   0.0 |  0.28
Output  | 0          | 0          | 0          |   0.0 |  0.00
Modify  | 0.030122   | 0.030122   | 0.030122   |   0.0 | 38.99
Other   |            | 0.007865   |            |       | 10.18

Nlocal:           7201 ave        7201 max        7201 min
Histogram: 1 0 0 0 0 0 0 0 0 0
Nghost:           5587 ave        5587 max        5587 min
Histogram: 1 0 0 0 0 0 0 0 0 0
Neighs:         290835 ave      290835 max      290835 min
Histogram: 1 0 0 0 0 0 0 0 0 0

Total # of neighbors = 290835
Ave neighs/atom = 40.388141
Neighbor list builds = 0
Dangerous builds = 0

write_dump all custom ../Neb_Dump/Surface/110/Neb_Images/neb.$i.atom id type x y z 
write_dump all custom ../Neb_Dump/Surface/110/Neb_Images/neb.5.atom id type x y z 
Total wall time: 0:00:00
