LAMMPS (2 Aug 2023)
Running on 7 partitions of processors
    Step     MaxReplicaForce  MaxAtomForce      GradV0         GradV1         GradVc          EBF            EBR            RDT            RD1            PE1            RD2            PE2            RD3            PE3            RD4            PE4            RD5            PE5            RD6            PE6            RD7            PE7       
         0   3.351852         2.7205944      7.5227097e-05  0.022819703    3.351852       0.44206796     0.4420581      1.1376764      0              -6133.3592     0.16666667     -6133.2255     0.33333333     -6133.0129     0.5            -6132.9171     0.66666667     -6133.0129     0.83333333     -6133.2255     1              -6133.3591     
       392   1.8461553e-07    1.0589432e-14  1.2392788e-09  2.2736654e-09  1.7596085e-06  0.19834819     0.19834819     1.3071573      0              -6133.3592     0.1666668      -6133.3426     0.33333357     -6133.2442     0.50000026     -6133.1608     0.66666689     -6133.2442     0.83333346     -6133.3426     1              -6133.3592     
Climbing replica = 4
    Step     MaxReplicaForce  MaxAtomForce      GradV0         GradV1         GradVc          EBF            EBR            RDT            RD1            PE1            RD2            PE2            RD3            PE3            RD4            PE4            RD5            PE5            RD6            PE6            RD7            PE7       
       392   1.7596085e-06    1.5098558e-12  1.2392788e-09  2.2736654e-09  1.7596085e-06  0.19834819     0.19834819     1.3071573      0              -6133.3592     0.1666668      -6133.3426     0.33333357     -6133.2442     0.50000026     -6133.1608     0.66666689     -6133.2442     0.83333346     -6133.3426     1              -6133.3592     
       502   3.8575478e-09    8.0809829e-18  1.4453869e-10  2.0830161e-10  8.0906056e-10  0.19834819     0.19834819     1.3071573      0              -6133.3592     0.16666666     -6133.3426     0.33333331     -6133.2442     0.49999996     -6133.1608     0.66666664     -6133.2442     0.83333332     -6133.3426     1              -6133.3592     
