LAMMPS (2 Aug 2023)
Running on 6 partitions of processors
    Step     MaxReplicaForce  MaxAtomForce      GradV0         GradV1         GradVc          EBF            EBR            RDT            RD1            PE1            RD2            PE2            RD3            PE3            RD4            PE4            RD5            PE5            RD6            PE6       
         0   27.949852        240.33615      0.0079780544   0.13615841     28.336632      5.3446806      5.3436147      2.6032818      0              -127104.84     0.2            -127102.76     0.4            -127099.49     0.6            -127099.52     0.8            -127102.61     1              -127104.84     
        13   0.99452382       0.16307331     0.30144264     0.38015789     0.88741734     0.26146807     0.260824       2.987275       0              -127104.84     0.19856379     -127104.67     0.40293933     -127104.63     0.59863583     -127104.69     0.80381275     -127104.58     1              -127104.84     
Climbing replica = 5
    Step     MaxReplicaForce  MaxAtomForce      GradV0         GradV1         GradVc          EBF            EBR            RDT            RD1            PE1            RD2            PE2            RD3            PE3            RD4            PE4            RD5            PE5            RD6            PE6       
        13   0.99452382       0.16307331     0.30144264     0.38015789     0.88741734     0.26146807     0.260824       2.987275       0              -127104.84     0.19856379     -127104.67     0.40293933     -127104.63     0.59863583     -127104.69     0.80381275     -127104.58     1              -127104.84     
        19   0.96250821       0.19844695     0.095209019    0.036314578    0.82217258     0.25717885     0.25648443     2.9957283      0              -127104.84     0.198578       -127104.68     0.40261924     -127104.64     0.59872132     -127104.7      0.80291052     -127104.58     1              -127104.84     
