LAMMPS (2 Aug 2023)
Running on 9 partitions of processors
    Step     MaxReplicaForce  MaxAtomForce      GradV0         GradV1         GradVc          EBF            EBR            RDT            RD1            PE1            RD2            PE2            RD3            PE3            RD4            PE4            RD5            PE5            RD6            PE6            RD7            PE7            RD8            PE8            RD9            PE9       
         0   5.1422768        4.7049183      0.0081798244   0.030728816    5.1422768      0.63520954     0.63519318     1.2236803      0              -9157.7438     0.125          -9157.6119     0.25           -9157.3773     0.375          -9157.1853     0.5            -9157.1086     0.625          -9157.1853     0.75           -9157.3773     0.875          -9157.6119     1              -9157.7438     
        31   0.45401159       0.060495365    0.001111332    0.0014608351   0.4540116      0.17458028     0.17458071     1.3251735      0              -9157.7438     0.12395649     -9157.7111     0.25157955     -9157.6512     0.37886457     -9157.5945     0.49998801     -9157.5692     0.62110876     -9157.5945     0.74839354     -9157.6512     0.87604187     -9157.7112     1              -9157.7438     
Climbing replica = 5
    Step     MaxReplicaForce  MaxAtomForce      GradV0         GradV1         GradVc          EBF            EBR            RDT            RD1            PE1            RD2            PE2            RD3            PE3            RD4            PE4            RD5            PE5            RD6            PE6            RD7            PE7            RD8            PE8            RD9            PE9       
        31   0.4540116        0.060495365    0.001111332    0.0014608351   0.4540116      0.17458028     0.17458071     1.3251735      0              -9157.7438     0.12395649     -9157.7111     0.25157955     -9157.6512     0.37886457     -9157.5945     0.49998801     -9157.5692     0.62110876     -9157.5945     0.74839354     -9157.6512     0.87604187     -9157.7112     1              -9157.7438     
        37   0.41788785       0.026706897    0.001105383    0.0013888419   0.41788785     0.17359202     0.17359246     1.3269656      0              -9157.7438     0.12386487     -9157.7114     0.2516692      -9157.652      0.37894632     -9157.5954     0.49997688     -9157.5702     0.62100423     -9157.5954     0.74828095     -9157.652      0.87610872     -9157.7114     1              -9157.7438     
