LAMMPS (2 Aug 2023)
Running on 7 partitions of processors
    Step     MaxReplicaForce  MaxAtomForce      GradV0         GradV1         GradVc          EBF            EBR            RDT            RD1            PE1            RD2            PE2            RD3            PE3            RD4            PE4            RD5            PE5            RD6            PE6            RD7            PE7       
         0   5.1394165        4.6943555      0.0022889983   0.030761242    5.1394165      0.63506666     0.63505507     1.223721       0              -6132.7652     0.16666667     -6132.5578     0.33333333     -6132.2604     0.5            -6132.1302     0.66666667     -6132.2605     0.83333333     -6132.558      1              -6132.7652     
      1000   0.0074074836     7.9952489e-06  6.9550731e-06  3.5974191e-05  0.0074074836   0.15129573     0.15129573     1.4044581      0              -6132.7652     0.16745684     -6132.719      0.33403649     -6132.6563     0.5000028      -6132.6139     0.66596807     -6132.6563     0.83254528     -6132.719      1              -6132.7652     
      2000   0.00073251364    2.0451129e-07  3.2609117e-07  1.6879501e-06  0.0046108482   0.15127838     0.15127838     1.4070945      0              -6132.7652     0.16674913     -6132.7194     0.33341117     -6132.6566     0.4999936      -6132.614      0.66657802     -6132.6566     0.83324571     -6132.7194     1              -6132.7652     
      3000   0.00013101948    8.1391521e-09  1.5819644e-08  8.1867101e-08  0.0039111659   0.15127828     0.15127828     1.4072675      0              -6132.7652     0.16667266     -6132.7194     0.33333827     -6132.6566     0.49999642     -6132.614      0.66665554     -6132.6566     0.83332355     -6132.7194     1              -6132.7652     
      4000   2.1145691e-05    4.2347518e-11  6.7680967e-10  3.5015235e-09  0.00018472063  0.15127804     0.15127804     1.4073807      0              -6132.7652     0.16666774     -6132.7194     0.33333635     -6132.6566     0.50000477     -6132.614      0.66667178     -6132.6566     0.83333647     -6132.7194     1              -6132.7652     
      4127   2.4496098e-05    2.4805729e-10  4.5422913e-10  2.3497521e-09  0.00016853958  0.15127804     0.15127804     1.4073818      0              -6132.7652     0.16666803     -6132.7194     0.3333365      -6132.6566     0.5000046      -6132.614      0.66667138     -6132.6566     0.83333619     -6132.7194     1              -6132.7652     
Climbing replica = 4
    Step     MaxReplicaForce  MaxAtomForce      GradV0         GradV1         GradVc          EBF            EBR            RDT            RD1            PE1            RD2            PE2            RD3            PE3            RD4            PE4            RD5            PE5            RD6            PE6            RD7            PE7       
      4127   0.00016853958    1.2598191e-08  4.5422919e-10  2.349752e-09   0.00016853958  0.15127804     0.15127804     1.4073818      0              -6132.7652     0.16666803     -6132.7194     0.3333365      -6132.6566     0.5000046      -6132.614      0.66667138     -6132.6566     0.83333619     -6132.7194     1              -6132.7652     
      4561   1.5192036e-05    1.2951369e-10  1.1849395e-10  6.1185995e-10  1.5192036e-05  0.15127804     0.15127804     1.4073833      0              -6132.7652     0.16666733     -6132.7194     0.33333393     -6132.6566     0.49999942     -6132.614      0.66666782     -6132.6566     0.83333452     -6132.7194     1              -6132.7652     
