LAMMPS (2 Aug 2023)
Processor partition = 7

units metal

atom_style atomic

atom_modify map array sort 0 0.0

read_data ../Neb_Dump/Surface/110/init_simple.data
Reading data file ...
  orthogonal box = (0.039973222 0.09450966 -22.325896) to (53.319227 37.636142 75.685096)
  1 by 1 by 1 MPI processor grid
  reading atoms ...
  7201 atoms
  reading velocities ...
  7201 velocities
  read_data CPU = 0.028 seconds

mass 1 183.84

mass 2 1.00784

mass 3 4.002602

pair_style eam/alloy

pair_coeff * * Potentials/Selected_Potentials/Potential_3/optim102.eam.alloy W H He

thermo 10

run 0
WARNING: No fixes with time integration, atoms won't move (src/verlet.cpp:60)
Neighbor list info ...
  update: every = 1 steps, delay = 0 steps, check = yes
  max neighbors/atom: 2000, page size: 100000
  master list distance cutoff = 6.8513889
  ghost atom cutoff = 6.8513889
  binsize = 3.4256945, bins = 16 11 29
  1 neighbor lists, perpetual/occasional/extra = 1 0 0
  (1) pair eam/alloy, perpetual
      attributes: half, newton on
      pair build: half/bin/atomonly/newton
      stencil: half/bin/3d
      bin: standard
Per MPI rank memory allocation (min/avg/max) = 4.424 | 4.424 | 4.424 Mbytes
   Step          Temp          E_pair         E_mol          TotEng         Press     
         0   0             -63556.567      0             -63556.567      0.0048437744 
Loop time of 4.59e-07 on 1 procs for 0 steps with 7201 atoms

217.9% CPU use with 1 MPI tasks x no OpenMP threads

MPI task timing breakdown:
Section |  min time  |  avg time  |  max time  |%varavg| %total
---------------------------------------------------------------
Pair    | 0          | 0          | 0          |   0.0 |  0.00
Neigh   | 0          | 0          | 0          |   0.0 |  0.00
Comm    | 0          | 0          | 0          |   0.0 |  0.00
Output  | 0          | 0          | 0          |   0.0 |  0.00
Modify  | 0          | 0          | 0          |   0.0 |  0.00
Other   |            | 4.59e-07   |            |       |100.00

Nlocal:           7201 ave        7201 max        7201 min
Histogram: 1 0 0 0 0 0 0 0 0 0
Nghost:           5587 ave        5587 max        5587 min
Histogram: 1 0 0 0 0 0 0 0 0 0
Neighs:         290901 ave      290901 max      290901 min
Histogram: 1 0 0 0 0 0 0 0 0 0

Total # of neighbors = 290901
Ave neighs/atom = 40.397306
Neighbor list builds = 0
Dangerous builds = 0

fix 1 all neb 1e-4

timestep 1e-3

min_style quickmin

thermo 100

variable i equal part

neb 10e-8 10e-10 5000 5000 100 final ../Neb_Dump/Surface/110/final_simple.atom
Per MPI rank memory allocation (min/avg/max) = 4.426 | 4.426 | 4.426 Mbytes
   Step          Temp          E_pair         E_mol          TotEng         Press     
         0   0             -63485.1        0             -63485.1        678.83621    
        53   0.064135229   -63550.315      0             -63550.255      32.269456    
Loop time of 0.525786 on 1 procs for 53 steps with 7201 atoms

95.8% CPU use with 1 MPI tasks x no OpenMP threads

Minimization stats:
  Stopping criterion = energy tolerance
  Energy initial, next-to-last, final = 
     -63485.0999654645  -63550.3144240204  -63550.3145576554
  Force two-norm initial, final = 337.83063 0.065334202
  Force max component initial, final = 239.59575 0.033633508
  Final line search alpha, max atom move = 0 0
  Iterations, force evaluations = 53 53

MPI task timing breakdown:
Section |  min time  |  avg time  |  max time  |%varavg| %total
---------------------------------------------------------------
Pair    | 0.25347    | 0.25347    | 0.25347    |   0.0 | 48.21
Neigh   | 0.0091726  | 0.0091726  | 0.0091726  |   0.0 |  1.74
Comm    | 0.0016101  | 0.0016101  | 0.0016101  |   0.0 |  0.31
Output  | 0          | 0          | 0          |   0.0 |  0.00
Modify  | 0.2035     | 0.2035     | 0.2035     |   0.0 | 38.70
Other   |            | 0.05803    |            |       | 11.04

Nlocal:           7201 ave        7201 max        7201 min
Histogram: 1 0 0 0 0 0 0 0 0 0
Nghost:           5587 ave        5587 max        5587 min
Histogram: 1 0 0 0 0 0 0 0 0 0
Neighs:         290843 ave      290843 max      290843 min
Histogram: 1 0 0 0 0 0 0 0 0 0

Total # of neighbors = 290843
Ave neighs/atom = 40.389251
Neighbor list builds = 1
Dangerous builds = 0
Per MPI rank memory allocation (min/avg/max) = 4.426 | 4.426 | 4.426 Mbytes
   Step          Temp          E_pair         E_mol          TotEng         Press     
        53   0             -63550.315      0             -63550.315      31.944243    
        59   0.0010670962  -63550.315      0             -63550.314      31.926918    
Loop time of 0.0772486 on 1 procs for 6 steps with 7201 atoms

90.1% CPU use with 1 MPI tasks x no OpenMP threads

Minimization stats:
  Stopping criterion = energy tolerance
  Energy initial, next-to-last, final = 
     -63550.3145576553  -63550.3146171367  -63550.3146406011
  Force two-norm initial, final = 0.065334202 0.05354508
  Force max component initial, final = 0.033633508 0.034367917
  Final line search alpha, max atom move = 0 0
  Iterations, force evaluations = 6 6

MPI task timing breakdown:
Section |  min time  |  avg time  |  max time  |%varavg| %total
---------------------------------------------------------------
Pair    | 0.032749   | 0.032749   | 0.032749   |   0.0 | 42.39
Neigh   | 0          | 0          | 0          |   0.0 |  0.00
Comm    | 0.00019046 | 0.00019046 | 0.00019046 |   0.0 |  0.25
Output  | 0          | 0          | 0          |   0.0 |  0.00
Modify  | 0.027541   | 0.027541   | 0.027541   |   0.0 | 35.65
Other   |            | 0.01677    |            |       | 21.71

Nlocal:           7201 ave        7201 max        7201 min
Histogram: 1 0 0 0 0 0 0 0 0 0
Nghost:           5587 ave        5587 max        5587 min
Histogram: 1 0 0 0 0 0 0 0 0 0
Neighs:         290848 ave      290848 max      290848 min
Histogram: 1 0 0 0 0 0 0 0 0 0

Total # of neighbors = 290848
Ave neighs/atom = 40.389946
Neighbor list builds = 0
Dangerous builds = 0

write_dump all custom ../Neb_Dump/Surface/110/Neb_Images/neb.$i.atom id type x y z 
write_dump all custom ../Neb_Dump/Surface/110/Neb_Images/neb.7.atom id type x y z 
Total wall time: 0:00:00
