LAMMPS (2 Aug 2023)
Running on 9 partitions of processors
    Step     MaxReplicaForce  MaxAtomForce      GradV0         GradV1         GradVc          EBF            EBR            RDT            RD1            PE1            RD2            PE2            RD3            PE3            RD4            PE4            RD5            PE5            RD6            PE6            RD7            PE7            RD8            PE8            RD9            PE9       
         0   337.83063        57406.125      0.00034486723  0.096617169    416.60236      71.466718      65.216721      17.051715      0              -63556.567     0.125          -63553.112     0.25           -63529.932     0.375          -63529.535     0.5            -63542.555     0.625          -63510.321     0.75           -63547.392     0.875          -63485.1       1              -63550.317     
        53   0.40198127       0.080158677    5.8686168e-05  7.4508615e-05  0.85129625     6.712255       0.46241842     18.837767      0              -63556.567     0.11603894     -63554.06      0.2467197      -63549.854     0.3637939      -63550.091     0.4882085      -63550.137     0.61325762     -63550.284     0.74529735     -63550.277     0.8675439      -63550.315     1              -63550.317     
Climbing replica = 3
    Step     MaxReplicaForce  MaxAtomForce      GradV0         GradV1         GradVc          EBF            EBR            RDT            RD1            PE1            RD2            PE2            RD3            PE3            RD4            PE4            RD5            PE5            RD6            PE6            RD7            PE7            RD8            PE8            RD9            PE9       
        53   0.85129625       0.45579403     5.8686168e-05  7.4508615e-05  0.85129625     6.712255       0.46241842     18.837767      0              -63556.567     0.11603894     -63554.06      0.2467197      -63549.854     0.3637939      -63550.091     0.4882085      -63550.137     0.61325762     -63550.284     0.74529735     -63550.277     0.8675439      -63550.315     1              -63550.317     
        59   0.9885472        0.62146911     5.8433279e-05  7.371776e-05   0.9885472      6.7245582      0.4747216      18.848407      0              -63556.567     0.1160615      -63554.061     0.24597567     -63549.842     0.36403667     -63550.091     0.48838548     -63550.138     0.61341673     -63550.284     0.74541277     -63550.277     0.86758263     -63550.315     1              -63550.317     
