LAMMPS (2 Aug 2023)
Processor partition = 3

units metal

atom_style atomic

atom_modify map array sort 0 0.0

read_data ../Neb_Dump/Bulk/Tet_Tet/tet_0.data
Reading data file ...
  orthogonal box = (0.0022980543 -0.0096010385 -0.005062638) to (54.457207 51.354515 44.471062)
  1 by 1 by 1 MPI processor grid
  reading atoms ...
  8001 atoms
  reading velocities ...
  8001 velocities
  read_data CPU = 0.030 seconds

mass 1 183.84

mass 2 1.00784

mass 3 4.002602

pair_style eam/alloy

pair_coeff * * Potentials/Selected_Potentials/Potential_3/optim102.eam.alloy W H He

thermo 10

run 0
WARNING: No fixes with time integration, atoms won't move (src/verlet.cpp:60)
Neighbor list info ...
  update: every = 1 steps, delay = 0 steps, check = yes
  max neighbors/atom: 2000, page size: 100000
  master list distance cutoff = 6.8513889
  ghost atom cutoff = 6.8513889
  binsize = 3.4256945, bins = 16 15 13
  1 neighbor lists, perpetual/occasional/extra = 1 0 0
  (1) pair eam/alloy, perpetual
      attributes: half, newton on
      pair build: half/bin/atomonly/newton
      stencil: half/bin/3d
      bin: standard
Per MPI rank memory allocation (min/avg/max) = 7.397 | 7.397 | 7.397 Mbytes
   Step          Temp          E_pair         E_mol          TotEng         Press     
         0   0             -71571.216      0             -71571.216      127.09315    
Loop time of 8.75e-07 on 1 procs for 0 steps with 8001 atoms

114.3% CPU use with 1 MPI tasks x no OpenMP threads

MPI task timing breakdown:
Section |  min time  |  avg time  |  max time  |%varavg| %total
---------------------------------------------------------------
Pair    | 0          | 0          | 0          |   0.0 |  0.00
Neigh   | 0          | 0          | 0          |   0.0 |  0.00
Comm    | 0          | 0          | 0          |   0.0 |  0.00
Output  | 0          | 0          | 0          |   0.0 |  0.00
Modify  | 0          | 0          | 0          |   0.0 |  0.00
Other   |            | 8.75e-07   |            |       |100.00

Nlocal:           8001 ave        8001 max        8001 min
Histogram: 1 0 0 0 0 0 0 0 0 0
Nghost:           9280 ave        9280 max        9280 min
Histogram: 1 0 0 0 0 0 0 0 0 0
Neighs:         318088 ave      318088 max      318088 min
Histogram: 1 0 0 0 0 0 0 0 0 0

Total # of neighbors = 318088
Ave neighs/atom = 39.75603
Neighbor list builds = 0
Dangerous builds = 0

fix 1 all neb 1e-4

timestep 1e-3

min_style quickmin

thermo 100

variable i equal part

neb 10e-8 10e-10 5000 5000 100 final ../Neb_Dump/Bulk/Tet_Tet/tet_1.atom
Per MPI rank memory allocation (min/avg/max) = 7.397 | 7.397 | 7.397 Mbytes
   Step          Temp          E_pair         E_mol          TotEng         Press     
         0   0             -71492.915      0             -71492.915      1299.2509    
        19   0.054418003   -71571.19       0             -71571.134      131.73087    
Loop time of 0.228427 on 1 procs for 19 steps with 8001 atoms

92.8% CPU use with 1 MPI tasks x no OpenMP threads

Minimization stats:
  Stopping criterion = energy tolerance
  Energy initial, next-to-last, final = 
      -71492.915241326  -71571.1889646251  -71571.1897878757
  Force two-norm initial, final = 462.39584 0.27380316
  Force max component initial, final = 247.92671 0.11824473
  Final line search alpha, max atom move = 0 0
  Iterations, force evaluations = 19 19

MPI task timing breakdown:
Section |  min time  |  avg time  |  max time  |%varavg| %total
---------------------------------------------------------------
Pair    | 0.11631    | 0.11631    | 0.11631    |   0.0 | 50.92
Neigh   | 0          | 0          | 0          |   0.0 |  0.00
Comm    | 0.0025385  | 0.0025385  | 0.0025385  |   0.0 |  1.11
Output  | 0          | 0          | 0          |   0.0 |  0.00
Modify  | 0.095313   | 0.095313   | 0.095313   |   0.0 | 41.73
Other   |            | 0.01426    |            |       |  6.24

Nlocal:           8001 ave        8001 max        8001 min
Histogram: 1 0 0 0 0 0 0 0 0 0
Nghost:           9280 ave        9280 max        9280 min
Histogram: 1 0 0 0 0 0 0 0 0 0
Neighs:         318095 ave      318095 max      318095 min
Histogram: 1 0 0 0 0 0 0 0 0 0

Total # of neighbors = 318095
Ave neighs/atom = 39.756905
Neighbor list builds = 0
Dangerous builds = 0
Per MPI rank memory allocation (min/avg/max) = 7.397 | 7.397 | 7.397 Mbytes
   Step          Temp          E_pair         E_mol          TotEng         Press     
        19   0             -71571.19       0             -71571.19       131.24771    
        25   0.023372129   -71571.191      0             -71571.167      131.15361    
Loop time of 0.0731673 on 1 procs for 6 steps with 8001 atoms

95.3% CPU use with 1 MPI tasks x no OpenMP threads

Minimization stats:
  Stopping criterion = energy tolerance
  Energy initial, next-to-last, final = 
     -71571.1897878757  -71571.1908147939  -71571.1913201096
  Force two-norm initial, final = 0.27380316 0.25733933
  Force max component initial, final = 0.11824473 0.10874812
  Final line search alpha, max atom move = 0 0
  Iterations, force evaluations = 6 6

MPI task timing breakdown:
Section |  min time  |  avg time  |  max time  |%varavg| %total
---------------------------------------------------------------
Pair    | 0.034428   | 0.034428   | 0.034428   |   0.0 | 47.05
Neigh   | 0          | 0          | 0          |   0.0 |  0.00
Comm    | 0.00034871 | 0.00034871 | 0.00034871 |   0.0 |  0.48
Output  | 0          | 0          | 0          |   0.0 |  0.00
Modify  | 0.03173    | 0.03173    | 0.03173    |   0.0 | 43.37
Other   |            | 0.006661   |            |       |  9.10

Nlocal:           8001 ave        8001 max        8001 min
Histogram: 1 0 0 0 0 0 0 0 0 0
Nghost:           9280 ave        9280 max        9280 min
Histogram: 1 0 0 0 0 0 0 0 0 0
Neighs:         318160 ave      318160 max      318160 min
Histogram: 1 0 0 0 0 0 0 0 0 0

Total # of neighbors = 318160
Ave neighs/atom = 39.765029
Neighbor list builds = 0
Dangerous builds = 0

write_dump all custom ../Neb_Dump/Bulk/Tet_Tet/Neb_Images/neb.$i.atom id type x y z 
write_dump all custom ../Neb_Dump/Bulk/Tet_Tet/Neb_Images/neb.3.atom id type x y z 
Total wall time: 0:00:00
