LAMMPS (2 Aug 2023)
Processor partition = 2

units metal

atom_style atomic

atom_modify map array sort 0 0.0

read_data ../Neb_Dump/Bulk/Tet_Tet/tet_0.data
Reading data file ...
  orthogonal box = (-1.1862976e-06 -1.1862976e-06 -1.1862976e-06) to (25.153769 25.153769 25.153769)
  1 by 1 by 1 MPI processor grid
  reading atoms ...
  1025 atoms
  reading velocities ...
  1025 velocities
  read_data CPU = 0.008 seconds

mass 1 183.84

mass 2 1.00784

mass 3 4.002602

pair_style eam/alloy

pair_coeff * * Potentials/Selected_Potentials/Potential_3/optim102.eam.alloy W H He

thermo 10

run 0
WARNING: No fixes with time integration, atoms won't move (src/verlet.cpp:60)
Neighbor list info ...
  update: every = 1 steps, delay = 0 steps, check = yes
  max neighbors/atom: 2000, page size: 100000
  master list distance cutoff = 6.8513889
  ghost atom cutoff = 6.8513889
  binsize = 3.4256945, bins = 8 8 8
  1 neighbor lists, perpetual/occasional/extra = 1 0 0
  (1) pair eam/alloy, perpetual
      attributes: half, newton on
      pair build: half/bin/atomonly/newton
      stencil: half/bin/3d
      bin: standard
Per MPI rank memory allocation (min/avg/max) = 3.324 | 3.324 | 3.324 Mbytes
   Step          Temp          E_pair         E_mol          TotEng         Press     
         0   0             -9158.337       0             -9158.337       1054.2381    
Loop time of 4.17e-07 on 1 procs for 0 steps with 1025 atoms

239.8% CPU use with 1 MPI tasks x no OpenMP threads

MPI task timing breakdown:
Section |  min time  |  avg time  |  max time  |%varavg| %total
---------------------------------------------------------------
Pair    | 0          | 0          | 0          |   0.0 |  0.00
Neigh   | 0          | 0          | 0          |   0.0 |  0.00
Comm    | 0          | 0          | 0          |   0.0 |  0.00
Output  | 0          | 0          | 0          |   0.0 |  0.00
Modify  | 0          | 0          | 0          |   0.0 |  0.00
Other   |            | 4.17e-07   |            |       |100.00

Nlocal:           1025 ave        1025 max        1025 min
Histogram: 1 0 0 0 0 0 0 0 0 0
Nghost:           2901 ave        2901 max        2901 min
Histogram: 1 0 0 0 0 0 0 0 0 0
Neighs:          34292 ave       34292 max       34292 min
Histogram: 1 0 0 0 0 0 0 0 0 0

Total # of neighbors = 34292
Ave neighs/atom = 33.45561
Neighbor list builds = 0
Dangerous builds = 0

fix 1 all neb 1e-4

timestep 1e-3

min_style quickmin

thermo 100

variable i equal part

neb 10e-8 10e-10 5000 5000 100 final ../Neb_Dump/Bulk/Tet_Tet/tet_1.atom
Per MPI rank memory allocation (min/avg/max) = 3.324 | 3.324 | 3.324 Mbytes
   Step          Temp          E_pair         E_mol          TotEng         Press     
         0   0             -9158.0925      0             -9158.0925      1175.8019    
        31   0.56082896    -9158.2684      0             -9158.1941      1022.3617    
Loop time of 0.0470699 on 1 procs for 31 steps with 1025 atoms

95.8% CPU use with 1 MPI tasks x no OpenMP threads

Minimization stats:
  Stopping criterion = energy tolerance
  Energy initial, next-to-last, final = 
     -9158.09254548117  -9158.26809591972  -9158.26836369853
  Force two-norm initial, final = 2.5232661 0.066038503
  Force max component initial, final = 1.1208066 0.035201599
  Final line search alpha, max atom move = 0 0
  Iterations, force evaluations = 31 31

MPI task timing breakdown:
Section |  min time  |  avg time  |  max time  |%varavg| %total
---------------------------------------------------------------
Pair    | 0.025051   | 0.025051   | 0.025051   |   0.0 | 53.22
Neigh   | 0          | 0          | 0          |   0.0 |  0.00
Comm    | 0.00040283 | 0.00040283 | 0.00040283 |   0.0 |  0.86
Output  | 0          | 0          | 0          |   0.0 |  0.00
Modify  | 0.017673   | 0.017673   | 0.017673   |   0.0 | 37.55
Other   |            | 0.003943   |            |       |  8.38

Nlocal:           1025 ave        1025 max        1025 min
Histogram: 1 0 0 0 0 0 0 0 0 0
Nghost:           2901 ave        2901 max        2901 min
Histogram: 1 0 0 0 0 0 0 0 0 0
Neighs:          34261 ave       34261 max       34261 min
Histogram: 1 0 0 0 0 0 0 0 0 0

Total # of neighbors = 34261
Ave neighs/atom = 33.425366
Neighbor list builds = 0
Dangerous builds = 0
Per MPI rank memory allocation (min/avg/max) = 3.324 | 3.324 | 3.324 Mbytes
   Step          Temp          E_pair         E_mol          TotEng         Press     
        31   0             -9158.2684      0             -9158.2684      1017.3797    
        37   0.0061475459  -9158.2684      0             -9158.2676      1017.1101    
Loop time of 0.0100141 on 1 procs for 6 steps with 1025 atoms

100.0% CPU use with 1 MPI tasks x no OpenMP threads

Minimization stats:
  Stopping criterion = energy tolerance
  Energy initial, next-to-last, final = 
     -9158.26836369853  -9158.26841837483   -9158.2684447911
  Force two-norm initial, final = 0.066038503 0.062219683
  Force max component initial, final = 0.035201599 0.033138179
  Final line search alpha, max atom move = 0 0
  Iterations, force evaluations = 6 6

MPI task timing breakdown:
Section |  min time  |  avg time  |  max time  |%varavg| %total
---------------------------------------------------------------
Pair    | 0.0032957  | 0.0032957  | 0.0032957  |   0.0 | 32.91
Neigh   | 0          | 0          | 0          |   0.0 |  0.00
Comm    | 4.6083e-05 | 4.6083e-05 | 4.6083e-05 |   0.0 |  0.46
Output  | 0          | 0          | 0          |   0.0 |  0.00
Modify  | 0.0061652  | 0.0061652  | 0.0061652  |   0.0 | 61.57
Other   |            | 0.0005071  |            |       |  5.06

Nlocal:           1025 ave        1025 max        1025 min
Histogram: 1 0 0 0 0 0 0 0 0 0
Nghost:           2901 ave        2901 max        2901 min
Histogram: 1 0 0 0 0 0 0 0 0 0
Neighs:          34338 ave       34338 max       34338 min
Histogram: 1 0 0 0 0 0 0 0 0 0

Total # of neighbors = 34338
Ave neighs/atom = 33.500488
Neighbor list builds = 0
Dangerous builds = 0

write_dump all custom ../Neb_Dump/Bulk/Tet_Tet/Neb_Images/neb.$i.atom id type x y z 
write_dump all custom ../Neb_Dump/Bulk/Tet_Tet/Neb_Images/neb.2.atom id type x y z 
Total wall time: 0:00:00
