LAMMPS (2 Aug 2023)
Running on 7 partitions of processors
    Step     MaxReplicaForce  MaxAtomForce      GradV0         GradV1         GradVc          EBF            EBR            RDT            RD1            PE1            RD2            PE2            RD3            PE3            RD4            PE4            RD5            PE5            RD6            PE6            RD7            PE7       
         0   1084.9289        411065.77      0.00033085141  0.089905893    1084.9289      152.61053      152.61038      3.3693399      0              -71571.216     0.16666667     -71565.44      0.33333333     -71519.819     0.5            -71418.606     0.66666667     -71519.824     0.83333333     -71565.44      1              -71571.216     
        19   0.59318922       0.14106653     7.7357096e-05  0.00075752252  0.59318923     0.27746866     0.27746851     4.3201447      0              -71571.216     0.11777188     -71571.066     0.30408587     -71571.144     0.4999998      -71570.939     0.69591567     -71571.144     0.88222592     -71571.066     1              -71571.216     
Climbing replica = 4
    Step     MaxReplicaForce  MaxAtomForce      GradV0         GradV1         GradVc          EBF            EBR            RDT            RD1            PE1            RD2            PE2            RD3            PE3            RD4            PE4            RD5            PE5            RD6            PE6            RD7            PE7       
        19   0.59318923       0.14106653     7.7357096e-05  0.00075752252  0.59318923     0.27746866     0.27746851     4.3201447      0              -71571.216     0.11777188     -71571.066     0.30408587     -71571.144     0.4999998      -71570.939     0.69591567     -71571.144     0.88222592     -71571.066     1              -71571.216     
        25   0.49533787       0.084680893    7.6092726e-05  0.00071833674  0.49533787     0.27168455     0.27168441     4.3286107      0              -71571.216     0.11751355     -71571.066     0.30382064     -71571.146     0.49999991     -71570.944     0.6961809      -71571.146     0.88248424     -71571.066     1              -71571.216     
