LAMMPS (2 Aug 2023)
Processor partition = 6

units metal

atom_style atomic

atom_modify map array sort 0 0.0

read_data ../Neb_Dump/Bulk/Tet_Tet/tet_0.data
Reading data file ...
  orthogonal box = (-1.0380103e-06 -1.0380103e-06 -1.0380103e-06) to (22.009548 22.009548 22.009548)
  1 by 1 by 1 MPI processor grid
  reading atoms ...
  687 atoms
  reading velocities ...
  687 velocities
  read_data CPU = 0.010 seconds

mass 1 183.84

mass 2 1.00784

mass 3 4.002602

pair_style eam/alloy

pair_coeff * * Potentials/Selected_Potentials/Potential_3/optim102.eam.alloy W H He

thermo 10

run 0
WARNING: No fixes with time integration, atoms won't move (src/verlet.cpp:60)
Neighbor list info ...
  update: every = 1 steps, delay = 0 steps, check = yes
  max neighbors/atom: 2000, page size: 100000
  master list distance cutoff = 6.8513889
  ghost atom cutoff = 6.8513889
  binsize = 3.4256945, bins = 7 7 7
  1 neighbor lists, perpetual/occasional/extra = 1 0 0
  (1) pair eam/alloy, perpetual
      attributes: half, newton on
      pair build: half/bin/atomonly/newton
      stencil: half/bin/3d
      bin: standard
Per MPI rank memory allocation (min/avg/max) = 3.306 | 3.306 | 3.306 Mbytes
   Step          Temp          E_pair         E_mol          TotEng         Press     
         0   0             -6133.3592      0             -6133.3592      1569.8768    
Loop time of 4.16e-07 on 1 procs for 0 steps with 687 atoms

0.0% CPU use with 1 MPI tasks x no OpenMP threads

MPI task timing breakdown:
Section |  min time  |  avg time  |  max time  |%varavg| %total
---------------------------------------------------------------
Pair    | 0          | 0          | 0          |   0.0 |  0.00
Neigh   | 0          | 0          | 0          |   0.0 |  0.00
Comm    | 0          | 0          | 0          |   0.0 |  0.00
Output  | 0          | 0          | 0          |   0.0 |  0.00
Modify  | 0          | 0          | 0          |   0.0 |  0.00
Other   |            | 4.16e-07   |            |       |100.00

Nlocal:            687 ave         687 max         687 min
Histogram: 1 0 0 0 0 0 0 0 0 0
Nghost:           2373 ave        2373 max        2373 min
Histogram: 1 0 0 0 0 0 0 0 0 0
Neighs:          23552 ave       23552 max       23552 min
Histogram: 1 0 0 0 0 0 0 0 0 0

Total # of neighbors = 23552
Ave neighs/atom = 34.282387
Neighbor list builds = 0
Dangerous builds = 0

fix 1 all neb 1

timestep 1e-3

min_style quickmin

thermo 100

variable i equal part

neb 10e-15 10e-18 50000 50000 1000 final ../Neb_Dump/Bulk/Tet_Tet/tet_1.atom
Per MPI rank memory allocation (min/avg/max) = 3.306 | 3.306 | 3.306 Mbytes
   Step          Temp          E_pair         E_mol          TotEng         Press     
         0   0             -6133.3591      0             -6133.3591      1569.8785    
       100   2.105351e-10  -6133.3592      0             -6133.3592      1569.8794    
       200   1.0041823e-12 -6133.3592      0             -6133.3592      1569.8794    
       300   7.6339986e-17 -6133.3592      0             -6133.3592      1569.8794    
       392   2.703349e-19  -6133.3592      0             -6133.3592      1569.8794    
Loop time of 0.362764 on 1 procs for 392 steps with 687 atoms

99.3% CPU use with 1 MPI tasks x no OpenMP threads

Minimization stats:
  Stopping criterion = energy tolerance
  Energy initial, next-to-last, final = 
     -6133.35914144606  -6133.35915130305  -6133.35915130302
  Force two-norm initial, final = 0.022819703 2.2736654e-09
  Force max component initial, final = 0.0018977822 2.8578051e-10
  Final line search alpha, max atom move = 0 0
  Iterations, force evaluations = 392 392

MPI task timing breakdown:
Section |  min time  |  avg time  |  max time  |%varavg| %total
---------------------------------------------------------------
Pair    | 0.18888    | 0.18888    | 0.18888    |   0.0 | 52.07
Neigh   | 0          | 0          | 0          |   0.0 |  0.00
Comm    | 0.0034641  | 0.0034641  | 0.0034641  |   0.0 |  0.95
Output  | 2.5376e-05 | 2.5376e-05 | 2.5376e-05 |   0.0 |  0.01
Modify  | 0.10419    | 0.10419    | 0.10419    |   0.0 | 28.72
Other   |            | 0.06621    |            |       | 18.25

Nlocal:            687 ave         687 max         687 min
Histogram: 1 0 0 0 0 0 0 0 0 0
Nghost:           2373 ave        2373 max        2373 min
Histogram: 1 0 0 0 0 0 0 0 0 0
Neighs:          23557 ave       23557 max       23557 min
Histogram: 1 0 0 0 0 0 0 0 0 0

Total # of neighbors = 23557
Ave neighs/atom = 34.289665
Neighbor list builds = 0
Dangerous builds = 0
Per MPI rank memory allocation (min/avg/max) = 3.306 | 3.306 | 3.306 Mbytes
   Step          Temp          E_pair         E_mol          TotEng         Press     
       392   0             -6133.3592      0             -6133.3592      1569.8794    
       400   9.692943e-19  -6133.3592      0             -6133.3592      1569.8794    
       500   1.768505e-18  -6133.3592      0             -6133.3592      1569.8794    
       502   2.3289166e-18 -6133.3592      0             -6133.3592      1569.8794    
Loop time of 0.110229 on 1 procs for 110 steps with 687 atoms

98.9% CPU use with 1 MPI tasks x no OpenMP threads

Minimization stats:
  Stopping criterion = energy tolerance
  Energy initial, next-to-last, final = 
     -6133.35915130302  -6133.35915130309  -6133.35915130308
  Force two-norm initial, final = 2.2736654e-09 2.0830161e-10
  Force max component initial, final = 2.8578051e-10 1.4602403e-11
  Final line search alpha, max atom move = 0 0
  Iterations, force evaluations = 110 110

MPI task timing breakdown:
Section |  min time  |  avg time  |  max time  |%varavg| %total
---------------------------------------------------------------
Pair    | 0.055169   | 0.055169   | 0.055169   |   0.0 | 50.05
Neigh   | 0          | 0          | 0          |   0.0 |  0.00
Comm    | 0.001002   | 0.001002   | 0.001002   |   0.0 |  0.91
Output  | 1.9625e-05 | 1.9625e-05 | 1.9625e-05 |   0.0 |  0.02
Modify  | 0.032116   | 0.032116   | 0.032116   |   0.0 | 29.14
Other   |            | 0.02192    |            |       | 19.89

Nlocal:            687 ave         687 max         687 min
Histogram: 1 0 0 0 0 0 0 0 0 0
Nghost:           2373 ave        2373 max        2373 min
Histogram: 1 0 0 0 0 0 0 0 0 0
Neighs:          23552 ave       23552 max       23552 min
Histogram: 1 0 0 0 0 0 0 0 0 0

Total # of neighbors = 23552
Ave neighs/atom = 34.282387
Neighbor list builds = 0
Dangerous builds = 0

write_dump all custom ../Neb_Dump/Bulk/Tet_Tet/Neb_Images/neb.$i.atom id type x y z 
write_dump all custom ../Neb_Dump/Bulk/Tet_Tet/Neb_Images/neb.6.atom id type x y z 
Total wall time: 0:00:00
