LAMMPS (2 Aug 2023)
units metal
atom_style atomic
atom_modify map array sort 0 0.0
boundary p p p
lattice bcc 3.144221296574379 orient x 1 1 1 orient y -1 2 -1 orient z -1 0 1
Lattice spacing in x,y,z = 5.445951 5.1344919 4.4466004
region r_simbox block -1e-9 10.0000000001 -1e-9 10.0000000001 -5.0000000001 15.0000000001 units lattice
region r_atombox block -1e-4 10.0001 -1e-4 10.0001 -1e-4 10.0001 units lattice
create_box 3 r_simbox
Created orthogonal box = (-5.445951e-09 -5.1344919e-09 -22.233002) to (54.45951 51.344919 66.699006)
  2 by 1 by 3 MPI processor grid
create_atoms 1 region r_atombox
Created 8400 atoms
  using lattice units in orthogonal box = (-5.445951e-09 -5.1344919e-09 -22.233002) to (54.45951 51.344919 66.699006)
  create_atoms CPU = 0.001 seconds
mass 1 183.84
mass 2 1.00784
mass 3 4.002602
pair_style eam/alloy
pair_coeff * * Potentials/WHHe_test.eam.alloy W H He
fix 3 all box/relax aniso 0.0
run 0
WARNING: No fixes with time integration, atoms won't move (src/verlet.cpp:60)
Neighbor list info ...
  update: every = 1 steps, delay = 0 steps, check = yes
  max neighbors/atom: 2000, page size: 100000
  master list distance cutoff = 6.8513889
  ghost atom cutoff = 6.8513889
  binsize = 3.4256945, bins = 16 15 26
  1 neighbor lists, perpetual/occasional/extra = 1 0 0
  (1) pair eam/alloy, perpetual
      attributes: half, newton on
      pair build: half/bin/atomonly/newton
      stencil: half/bin/3d
      bin: standard
Per MPI rank memory allocation (min/avg/max) = 3.408 | 3.426 | 3.462 Mbytes
   Step          Temp          E_pair         E_mol          TotEng         Press          Volume    
         0   0             -73717.038      0             -73717.038     -10701.109      248673.38    
Loop time of 1.67363e-05 on 6 procs for 0 steps with 8400 atoms

52.8% CPU use with 6 MPI tasks x no OpenMP threads

MPI task timing breakdown:
Section |  min time  |  avg time  |  max time  |%varavg| %total
---------------------------------------------------------------
Pair    | 0          | 0          | 0          |   0.0 |  0.00
Neigh   | 0          | 0          | 0          |   0.0 |  0.00
Comm    | 0          | 0          | 0          |   0.0 |  0.00
Output  | 0          | 0          | 0          |   0.0 |  0.00
Modify  | 0          | 0          | 0          |   0.0 |  0.00
Other   |            | 1.674e-05  |            |       |100.00

Nlocal:           1400 ave        2600 max         800 min
Histogram: 4 0 0 0 0 0 0 0 0 2
Nghost:           2805 ave        4675 max        1870 min
Histogram: 4 0 0 0 0 0 0 0 0 2
Neighs:        43246.7 ave       84388 max       20681 min
Histogram: 4 0 0 0 0 0 0 0 0 2

Total # of neighbors = 259480
Ave neighs/atom = 30.890476
Neighbor list builds = 0
Dangerous builds = 0
thermo 5
thermo_style custom step temp pe pxx pyy pzz pxy pxz pyz vol
minimize 1e-9 1e-12 100 1000
WARNING: Energy due to 3 extra global DOFs will be included in minimizer energies
 (src/min.cpp:225)
Per MPI rank memory allocation (min/avg/max) = 4.533 | 4.551 | 4.587 Mbytes
   Step          Temp          PotEng          Pxx            Pyy            Pzz            Pxy            Pxz            Pyz           Volume    
         0   0             -73717.038     -15943.735     -13210.682     -2948.9116      1425.7291     -7.8019751e-11  1.1078644e-11  248673.38    
         5   0             -73719.025     -14096.167     -11499.116     -1841.8365      1411.7972     -6.0855682e-11 -6.1497233e-11  248426.26    
        10   0             -73720.734     -12344.132     -9891.3311     -856.65979      1406.8117     -8.7151113e-13  3.1649615e-11  248188.25    
        15   0             -73722.184     -10612.347     -8296.5635      47.314689      1415.4677      1.4792573e-10  7.1254105e-11  247960.43    
        20   0             -73723.392     -8845.2231     -6752.9429      837.14124      1397.1199     -6.9627392e-11 -9.2637401e-11  247744.9     
        25   0             -73724.375     -7154.7488     -5259.7752      1499.273       1363.3906      4.4447703e-11  7.6892456e-11  247544.4     
        30   0             -73725.157     -5445.3161     -3876.9871      2005.4912      1377.5747     -3.6817527e-11  8.7717759e-11  247363.68    
        35   0             -73725.768     -3945.204      -2582.2905      2243.3532      1352.006      -5.7989458e-11  1.1356125e-10  247208.54    
        40   0             -73726.229     -2435.2879     -1472.9174      2110.6193      1345.6766     -1.3061687e-11 -4.1097089e-11  247089.53    
        45   0             -73726.549     -1241.6966     -662.6596       1571.3829      1349.3036     -6.2099699e-12  2.8296264e-11  247024.39    
        50   0             -73726.707     -479.24722     -245.20136      759.89229      1309.9711      5.560486e-11   8.2957935e-12  247010.34    
        55   0             -73726.801     -24.272763     -26.136886     -194.1073       1297.2896      9.4380414e-11  8.1016e-11     247029.39    
        60   0             -73726.951      262.59613      259.14807      69.361663      1306.1746      1.3735354e-10 -5.9181862e-11  246988.63    
        65   0             -73727.132      99.12214       151.24599     -15.071544      1301.4411      8.7752355e-11  1.5024826e-10  247006.69    
        70   0             -73727.244      110.57688      55.372524      168.01866      1302.369      -2.7999423e-12  4.885496e-11   247000.46    
        75   0             -73727.517     -14.033583      221.98273      93.984403      1301.1713     -7.9388185e-12  6.3510548e-11  247003.96    
        80   0             -73727.657     -274.05239     -265.66625     -244.939        1295.4697      3.1218295e-11 -2.6356996e-11  247059       
        85   0             -73728.308      164.22988      169.80889      100.90159      1303.5363      1.1018873e-10  1.5919351e-10  247000.33    
        90   0             -73730.177      28.650347     -92.361131     -114.62438      1300.2932     -4.1866094e-11  3.225786e-12   247037.59    
        95   0             -73730.736      256.97275      252.30818      160.19219      1306.021      -3.1087746e-11  1.0231993e-11  246997.91    
       100   0             -73730.926     -355.32453     -348.67714     -242.51733      1300.4971      4.9899041e-11 -1.076308e-10   247079.56    
Loop time of 0.124484 on 6 procs for 100 steps with 8400 atoms

98.5% CPU use with 6 MPI tasks x no OpenMP threads

Minimization stats:
  Stopping criterion = max iterations
  Energy initial, next-to-last, final = 
     -73717.0384942973  -73730.9104101621  -73730.9259347355
  Force two-norm initial, final = 3246.4801 96.108287
  Force max component initial, final = 2474.6228 55.069661
  Final line search alpha, max atom move = 5.9017537e-06 0.00032500758
  Iterations, force evaluations = 100 100

MPI task timing breakdown:
Section |  min time  |  avg time  |  max time  |%varavg| %total
---------------------------------------------------------------
Pair    | 0.051488   | 0.068866   | 0.10262    |   9.0 | 55.32
Neigh   | 0          | 0          | 0          |   0.0 |  0.00
Comm    | 0.0075293  | 0.040673   | 0.057841   |  11.5 | 32.67
Output  | 0.0003615  | 0.00041451 | 0.0005085  |   0.0 |  0.33
Modify  | 0          | 0          | 0          |   0.0 |  0.00
Other   |            | 0.01453    |            |       | 11.67

Nlocal:           1400 ave        2600 max         800 min
Histogram: 4 0 0 0 0 0 0 0 0 2
Nghost:           2805 ave        4675 max        1870 min
Histogram: 4 0 0 0 0 0 0 0 0 2
Neighs:        43246.7 ave       84388 max       20681 min
Histogram: 4 0 0 0 0 0 0 0 0 2

Total # of neighbors = 259480
Ave neighs/atom = 30.890476
Neighbor list builds = 0
Dangerous builds = 0
minimize 1e-12 1e-15 100 1000
WARNING: Energy due to 3 extra global DOFs will be included in minimizer energies
 (src/min.cpp:225)
Per MPI rank memory allocation (min/avg/max) = 4.533 | 4.678 | 4.97 Mbytes
   Step          Temp          PotEng          Pxx            Pyy            Pzz            Pxy            Pxz            Pyz           Volume    
       100   0             -73730.926     -355.32453     -348.67714     -242.51733      1300.4971      5.6165218e-11 -8.4316939e-12  247079.56    
       105   0             -73731.038     -346.55568     -318.42751     -164.16634      1300.9549     -3.2114896e-11  4.6997409e-11  247073.87    
       110   0             -73731.323     -158.2851      -130.3371      -53.605763      1301.2784     -4.5619421e-11 -6.7737928e-12  247050.64    
       115   0             -73731.521      172.15124      410.15051      381.50913      1307.2064      7.7896334e-12 -1.3412919e-11  246984.81    
       120   0             -73731.621      45.566213     -60.596789     -39.525619      1301.9862     -9.3087039e-12  7.4700044e-11  247037.4     
       125   0             -73731.714     -169.18809      53.366882     -5.6475528      1302.4465     -7.5804631e-12  5.8984758e-12  247041.96    
       130   0             -73731.878      266.55146      262.61918      233.36834      1306.1893      6.7337711e-11  7.1808456e-11  246997.43    
       135   0             -73732.232     -152.87205     -105.43975     -106.71904      1301.4732      2.8592161e-11  2.2855297e-11  247055.98    
       140   0             -73732.324     -232.31333     -348.47749     -274.55144      1300.6783      3.245961e-11   9.2333653e-11  247080.38    
       145   0             -73732.714     -107.93756      20.869454     -73.502061      1302.0515      5.6287568e-11  3.1749598e-11  247048.12    
       150   0             -73732.838      160.48061     -4.0173627      83.434192      1303.4643      3.7098103e-11  5.7467497e-11  247027.18    
       155   0             -73733.377      597.48943      496.16049      649.31333      1316.046       4.6167457e-11  3.6694254e-11  246953.72    
       160   0             -73733.507      113.57524      208.70139      77.881361      1304.8277      2.7973815e-11  1.3549096e-10  247023.09    
       165   0             -73733.653      330.83347      355.77729      287.35465      1309.3653      7.0610947e-11  4.1389445e-11  246994.51    
       170   0             -73733.74      -68.041868     -271.79143     -68.553862      1300.4995     -3.5940797e-12  8.363147e-11   247062.86    
       175   0             -73733.871     -71.221107     -223.8657      -45.362714      1300.4976      3.1955396e-11 -9.2156872e-13  247060.22    
       180   0             -73734.057      403.21786      384.82328      408.93416      1310.8279      2.5212626e-11  1.0057395e-10  246984.56    
       185   0             -73734.262      253.09951      268.19564      73.448076      1306.5875     -5.4197774e-11  2.3688483e-11  247016.77    
       190   0             -73734.4       -51.278176     -53.681509     -53.43665       1300.5456      8.3219558e-11 -1.0667402e-10  247054.58    
       195   0             -73734.775     -8.9076099      30.970857      46.918273      1300.628      -6.8154278e-11  3.1473544e-11  247044.74    
       200   0             -73734.93      -3.9448555     -198.18677     -249.91519      1298.837       3.7344871e-11 -1.1749466e-11  247071.48    
Loop time of 0.123152 on 6 procs for 100 steps with 8400 atoms

99.2% CPU use with 6 MPI tasks x no OpenMP threads

Minimization stats:
  Stopping criterion = max iterations
  Energy initial, next-to-last, final = 
     -73730.9259347357  -73734.9126530057   -73734.929893129
  Force two-norm initial, final = 95.874822 64.294208
  Force max component initial, final = 54.796353 38.534987
  Final line search alpha, max atom move = 5.3232113e-06 0.00020512988
  Iterations, force evaluations = 100 102

MPI task timing breakdown:
Section |  min time  |  avg time  |  max time  |%varavg| %total
---------------------------------------------------------------
Pair    | 0.049771   | 0.069316   | 0.10486    |   9.2 | 56.29
Neigh   | 0          | 0          | 0          |   0.0 |  0.00
Comm    | 0.0048645  | 0.04022    | 0.059839   |  12.1 | 32.66
Output  | 0.00028621 | 0.00031049 | 0.00042087 |   0.0 |  0.25
Modify  | 0          | 0          | 0          |   0.0 |  0.00
Other   |            | 0.01331    |            |       | 10.80

Nlocal:           1400 ave        2600 max         800 min
Histogram: 4 0 0 0 0 0 0 0 0 2
Nghost:           2805 ave        4675 max        1870 min
Histogram: 4 0 0 0 0 0 0 0 0 2
Neighs:        55986.7 ave      109566 max       24793 min
Histogram: 2 2 0 0 0 0 0 0 0 2

Total # of neighbors = 335920
Ave neighs/atom = 39.990476
Neighbor list builds = 0
Dangerous builds = 0
minimize 1e-13 1e-16 100000 100000
WARNING: Energy due to 3 extra global DOFs will be included in minimizer energies
 (src/min.cpp:225)
Per MPI rank memory allocation (min/avg/max) = 4.533 | 4.678 | 4.97 Mbytes
   Step          Temp          PotEng          Pxx            Pyy            Pzz            Pxy            Pxz            Pyz           Volume    
       200   0             -73734.93      -3.9448555     -198.18677     -249.91519      1298.837       3.7851711e-11 -2.1056886e-11  247071.48    
       205   0             -73735.035     -33.054675     -45.135381     -65.548755      1299.5928     -4.1471158e-12  9.943862e-11   247056.86    
       210   0             -73735.442      158.65574      156.71506      53.812182      1301.6068      3.7558064e-11  7.0784277e-11  247033       
       215   0             -73735.663     -84.316783     -61.073664      60.503446      1299.6567     -1.188843e-11   6.0363734e-12  247056.2     
       220   0             -73735.875      113.23713      54.903541     -67.648429      1300.457       6.8199314e-11 -4.1472556e-13  247048.53    
       225   0             -73736.164     -93.033188     -17.924063      92.749827      1300.0446      4.1218038e-11  4.1563633e-11  247054.97    
       230   0             -73736.806      201.24158      220.60986      188.36381      1301.609       3.0277673e-11  9.3321596e-11  247026.43    
       235   0             -73737.013     -33.384099     -65.462737     -18.788153      1298.6537      3.5410756e-11  1.3086083e-10  247063.87    
       240   0             -73737.313      175.64962      146.69909      193.80113      1299.9467      5.5461476e-11  3.4746949e-11  247033.15    
       245   0             -73737.68       91.327737      180.20823      63.651987      1300.1008      2.211901e-12   5.7048613e-11  247045.03    
       250   0             -73737.816      345.54373      399.67665      303.92146      1303.7072     -3.601772e-11  -3.6824259e-11  247009.31    
       255   0             -73737.907      124.87218     -37.879379      126.38452      1298.0853      3.4951826e-11  1.6128068e-11  247050.8     
       260   0             -73738.101     -496.772       -306.49172     -420.47259      1304.7138      8.7985695e-12  1.2622032e-11  247127.95    
       265   0             -73738.238      537.50626      281.13936      423.13143      1305.8274      3.1916922e-11  4.6089419e-12  247001.35    
       270   0             -73738.324     -220.21756     -56.942533     -151.57951      1300.6367     -4.6626191e-11  7.8969655e-11  247087.71    
       275   0             -73738.709      52.571915      179.26711      83.24788       1299.934       2.253318e-11  -4.0734829e-11  247051.18    
       280   0             -73739.032     -40.787559     -207.67951     -88.382061      1297.732      -1.2117439e-11 -3.450936e-11   247084.49    
       285   0             -73739.475      45.440848      113.38349      67.551209      1300.322      -8.6074708e-11 -1.2321401e-10  247059.68    
       290   0             -73739.618      37.603029      128.12852      71.681768      1300.8054     -7.0269672e-12 -3.5342189e-11  247060.02    
       295   0             -73739.78       159.08976      188.46092      161.78757      1301.3753     -3.3662111e-11 -2.8938817e-11  247046.91    
       300   0             -73740.151     -109.41583     -176.62412     -166.26126      1300.572      -4.1049703e-11  2.6352896e-11  247097.44    
       305   0             -73740.585      199.03481      117.44646      127.77517      1301.9518      1.6220009e-11 -2.3270184e-11  247054.13    
       310   0             -73740.759      279.24138     -34.810879      63.830646      1301.3568      2.8338161e-11  9.2663481e-11  247060.9     
       315   0             -73740.852     -67.286516     -217.74107     -153.8594       1301.7458      5.7105028e-11  6.3578007e-12  247100       
       320   0             -73741.061     -44.291976     -203.65186     -144.0272       1302.216      -6.3969955e-11  4.5380198e-11  247098.67    
       325   0             -73741.118     -85.231968      47.277352      9.3678939      1305.032      -2.2806824e-12  1.3352359e-10  247081.91    
       330   0             -73742.174      250.06269      326.65356      241.69429      1305.8942      5.5989025e-11  1.870909e-11   247043.79    
       335   0             -73742.427     -285.20305     -228.94206     -304.26566      1310.6597      5.2099935e-11 -5.343583e-12   247130.3     
       340   0             -73742.675     -316.6291      -486.03236     -303.70876      1310.366      -1.4463682e-11  6.8172769e-12  247144.73    
       345   0             -73742.793     -95.882038      58.032111     -122.17788      1310.17       -2.5200928e-11 -3.635015e-11   247099.21    
       350   0             -73742.893     -43.535077      143.54289     -90.158192      1310.6561      2.9025765e-12 -3.4554482e-12  247091.29    
       355   0             -73743.281      210.08878      58.521516      269.25343      1304.866      -2.4329077e-11  3.1701524e-11  247063.65    
       360   0             -73743.431      46.848204      43.783193      46.546183      1307.0712     -2.5639933e-11 -1.2762375e-11  247086.4     
       365   0             -73743.585     -127.509       -94.060117     -140.89309      1308.5821     -2.2458393e-11  1.3958755e-11  247113.52    
       370   0             -73743.786      127.83396     -161.26646      82.489839      1304.3038     -4.1741862e-11  1.8244787e-11  247091.01    
       375   0             -73743.92       238.29836      159.52146      248.28641      1306.0852      1.1980275e-12  1.0966559e-11  247062.67    
       380   0             -73744.315     -16.651741     -97.711348      65.563118      1307.6681     -1.7760341e-11  3.2387859e-11  247100.51    
       385   0             -73744.552      213.42006      169.50965      296.84007      1307.1867     -8.9390548e-12  6.3126315e-12  247064.69    
       390   0             -73744.636      25.70874      -134.08989      203.23843      1307.5932     -5.1186136e-11  6.9845349e-11  247094.04    
       395   0             -73744.766      94.569229      150.13823      44.973686      1309.738      -5.9112191e-11  3.5937263e-11  247087.15    
       400   0             -73744.998     -7.1780157     -23.807153      229.55405      1309.8825     -8.8920063e-11  2.9302155e-11  247091.67    
       405   0             -73745.058      92.499507      95.530773      216.65036      1309.291      -1.3661056e-11 -1.0320663e-11  247081.93    
       410   0             -73745.217     -249.94815     -285.66626     -156.02689      1312.7358      5.4562497e-11 -6.4489232e-12  247139.06    
       415   0             -73745.492      150.41774      131.03002     -104.68819      1310.9098     -3.6396399e-12 -8.0072077e-11  247098       
       420   0             -73745.724     -58.836337     -54.816708     -37.060289      1311.8479     -2.7825175e-11 -5.795376e-11   247115.27    
       425   0             -73745.849      47.06937       76.396926      103.35704      1311.7574     -2.9946577e-13 -9.7026908e-11  247096.58    
       430   0             -73745.967     -142.45225     -118.04068     -5.1084474      1312.774       4.4638789e-11 -7.3706979e-12  247122.3     
       435   0             -73746.239     -269.59314     -236.5437       80.309092      1315.0313     -1.5639145e-11  3.1877138e-11  247131.06    
       440   0             -73746.303      3.7744154     -52.905626     -197.88634      1311.9164     -7.3936579e-12 -6.6934486e-11  247124.75    
       445   0             -73746.598     -109.21469      121.30665     -10.094491      1313.4948     -6.1754637e-11 -3.5749048e-11  247114.26    
       450   0             -73746.71      -119.91435     -163.45698     -129.93702      1312.3319     -1.3819347e-11 -2.9112757e-11  247135.03    
       455   0             -73747.379      358.64172      384.50068      387.77963      1312.4177     -1.2855856e-11 -4.3037168e-11  247060.75    
       460   0             -73747.485     -130.07484     -273.83904      87.100844      1314.968      -5.1822825e-12 -2.7039998e-11  247133.72    
       465   0             -73747.587      83.247916      63.380872      195.50986      1313.2681     -3.7777896e-11 -7.2837626e-11  247102.22    
       470   0             -73747.686     -147.86528     -165.73667     -139.91188      1314.5311      2.4136924e-11 -2.4781804e-11  247143.92    
       475   0             -73747.938      165.98705      179.30455      306.88453      1314.3246     -4.2272065e-11 -2.0963258e-11  247088.86    
       480   0             -73748.045      88.169613      112.19873     -55.03571       1315.8828      1.5179355e-11 -6.3389356e-11  247117.02    
       485   0             -73748.19      -502.97683     -519.08912     -712.29066      1313.2252     -3.5228193e-11 -7.2160232e-11  247213.19    
       490   0             -73748.257      259.41069      300.32356      180.28627      1316.0952     -1.0002527e-10 -8.0628387e-12  247087.42    
       495   0             -73748.423      14.708461     -37.372367      444.71684      1315.3389     -3.9206015e-11 -2.7918737e-11  247102.66    
       500   0             -73748.773      100.20628      101.504        162.20605      1314.7449     -1.6354577e-11 -6.8182461e-12  247109.59    
       505   0             -73749.317     -86.860621      43.447824     -211.7943       1315.2861      8.4363115e-11  3.2704238e-12  247146.73    
       510   0             -73749.444      217.35054      147.83987     -111.32768      1315.3327      4.4454704e-11 -3.4780624e-11  247121.28    
       515   0             -73749.755     -234.88291     -176.4342      -252.98967      1314.5886      7.6893995e-11 -2.4779257e-11  247169.32    
       520   0             -73750.163      256.01617      213.32975      266.32796      1315.7904      5.4064167e-11 -1.3945652e-10  247100.8     
       525   0             -73750.339      287.48398      241.32861      165.85458      1317.3057     -2.6006573e-11 -7.6292091e-11  247104.91    
       530   0             -73750.404     -46.084831     -311.87768     -472.71072      1315.3712      1.4599627e-11 -8.593976e-11   247182.7     
       535   0             -73750.524      214.36133      240.6768       56.568327      1319.0435     -5.6571476e-11 -8.7437021e-11  247116.31    
       540   0             -73750.73      -311.97014     -318.04685     -372.45819      1316.9613      1.9043194e-11 -8.3725578e-11  247193.07    
       545   0             -73750.819      216.18522      239.99425      172.55377      1319.9389     -3.337682e-11  -7.946862e-11   247112.09    
       550   0             -73750.893     -169.16011     -214.23886      12.164507      1319.3847     -5.9140503e-11 -2.1233467e-11  247161.35    
       555   0             -73751.153      103.2133       111.09841      94.10155       1320.301      -3.4295624e-11 -6.0944407e-11  247130.62    
       560   0             -73751.23      -89.708488     -33.598142     -299.21043      1319.4384     -5.5592141e-11 -9.8057721e-11  247169.24    
       565   0             -73751.306     -253.851       -283.48211     -151.82485      1319.9145     -1.9504697e-11 -4.0989799e-11  247180.82    
       570   0             -73751.368      187.02899      206.90116      67.35599       1321.956      -5.5717248e-11 -7.5917342e-11  247125.05    
       575   0             -73751.485     -294.55992     -257.56551     -384.20238      1318.4385      3.9951102e-11  1.3217252e-11  247195.91    
       580   0             -73751.573      194.32535      216.62112      162.25815      1322.049      -1.957856e-11  -2.3033601e-11  247120.48    
       585   0             -73751.632     -83.524864     -180.76997      48.992762      1320.7506     -1.5314945e-11 -8.2907973e-13  247159.19    
       590   0             -73751.834      81.621376      32.780362      0.58078487     1320.9076      2.4620423e-11  8.3373182e-12  247145.53    
       595   0             -73751.96       328.98667      371.93009      222.34955      1323.8624      1.1102851e-11 -5.219722e-11   247105.89    
       600   0             -73752.267     -419.78591     -435.98712     -258.34298      1322.7401      8.431878e-11   2.8827721e-11  247209.18    
       605   0             -73752.347      102.49023      110.72848      172.72218      1321.4399     -5.7350238e-12 -3.8325621e-11  247135.25    
       610   0             -73752.385     -37.99178      -66.777217     -230.45625      1320.5696      5.4992493e-11 -5.3242313e-11  247173.26    
       615   0             -73752.542     -3.1170735      108.32011     -32.989753      1322.0703      7.4641809e-11 -5.0805255e-11  247153.88    
       620   0             -73753.071      419.52678      475.91472      420.29756      1325.6196     -3.5705835e-12 -7.0858804e-11  247094.5     
       625   0             -73753.202      192.46065      363.7574       544.49358      1324.5708      3.2709683e-11 -6.6064347e-11  247105.59    
       630   0             -73753.323     -71.829404     -190.33285     -105.02341      1322.097       9.0960449e-12 -8.1979544e-12  247180.99    
       635   0             -73753.6       -194.78412     -120.2941      -175.52679      1321.384       6.1482364e-12  2.2106019e-12  247190.21    
       640   0             -73753.716     -190.78306     -2.1403389      113.54623      1322.865       8.2144556e-11 -3.9702051e-11  247169.51    
       645   0             -73753.781     -19.552381      12.245733      22.1335        1322.241       6.6485709e-11 -4.0992228e-12  247166.18    
       650   0             -73753.879      42.350177     -345.62411     -234.94476      1321.6357     -3.2421673e-11  3.6934917e-11  247193.93    
       655   0             -73753.95       26.582921      235.8667       145.82438      1323.4978     -8.6596565e-11 -4.4357709e-11  247148.37    
       660   0             -73753.984     -155.18057     -133.59802     -124.17062      1322.2584     -6.3532054e-11 -6.9311882e-11  247189.13    
       665   0             -73754.029      336.88234      131.83495      181.5234       1323.0117     -1.1672708e-10 -3.4962846e-11  247135.74    
       670   0             -73754.259      66.62707       295.94032      170.96822      1324.9656     -3.0723793e-11 -5.6058255e-11  247144.85    
       675   0             -73754.331     -97.306467      35.432687     -17.521006      1323.7631     -2.4916771e-11 -4.2234157e-11  247175.87    
       680   0             -73754.496     -314.29677     -137.34939     -199.68273      1323.2097     -4.8584194e-12  4.678819e-11   247205.44    
       685   0             -73754.544      501.81341      732.96476      542.16824      1329.5624      7.4640021e-12 -3.2021491e-11  247083.54    
       690   0             -73754.626     -287.82216     -166.25851     -213.68287      1323.3805     -7.7319658e-11  1.3170591e-11  247207.32    
       695   0             -73754.779     -70.626177     -75.840104      74.646905      1325.2553     -1.4277502e-12  4.2832507e-12  247178.11    
       700   0             -73754.821     -368.18353     -392.50239     -197.09301      1325.1951     -4.6692973e-11 -4.001597e-11   247221.93    
       705   0             -73754.951     -102.71475     -138.37093     -58.523128      1324.6151      1.8099222e-11  3.8455089e-11  247191.32    
       710   0             -73755.059      19.81402       101.68452     -159.55909      1325.6365     -1.9734943e-11  1.0086237e-11  247181.25    
       715   0             -73755.14       97.980823      75.077478      156.08428      1325.6822     -7.5537666e-12  8.9355532e-12  247161.51    
       720   0             -73755.34      -553.94591     -465.57216     -621.57131      1322.2986      1.054335e-11   2.4033313e-11  247262.02    
       725   0             -73755.381      150.1346       212.56995      71.181953      1326.9803     -2.8833517e-11 -1.3979189e-10  247159.48    
       730   0             -73755.465      24.600175     -90.352257      247.84737      1326.6667     -8.2535864e-11  4.6979119e-11  247170.06    
       735   0             -73755.59       19.695251     -14.183579      62.778107      1325.7989      8.3131837e-12 -3.8226828e-12  247178.33    
       740   0             -73755.717      203.83436      325.6853       204.89118      1328.7713      1.6674534e-11 -5.472195e-11   247147.05    
       745   0             -73755.77      -645.71001     -310.03117     -581.7707       1322.9932      3.4507813e-11  2.7394461e-11  247260.51    
       750   0             -73755.875      66.41097      -144.75357      178.68685      1327.5172      1.4369633e-11  3.1502657e-11  247177.81    
       755   0             -73755.966     -93.714968     -87.198088     -119.39774      1325.7933      2.9381371e-11  1.5519627e-11  247200.41    
       760   0             -73756.036      98.595469      187.25574     -191.52097      1328.4885      5.3470383e-11 -9.3584684e-11  247183.5     
       765   0             -73756.117     -54.785693     -54.849912     -85.281068      1326.4926      5.3789947e-11  3.1960807e-11  247196.48    
       770   0             -73756.174      337.36733      331.93788      285.17416      1330.7591     -1.4164553e-11 -3.8509159e-11  247139.86    
       775   0             -73756.458      649.81578      365.11811      528.9411       1330.5064     -7.8547566e-12 -8.8314184e-11  247111.08    
       780   0             -73756.504     -130.38396     -318.91091     -171.63225      1328.0177      4.5588166e-11  6.1521e-11     247220.02    
       785   0             -73756.625     -97.601222     -127.40122     -107.0711       1327.7321     -2.9679892e-11 -1.0637789e-11  247207.23    
       790   0             -73756.696      89.218827      156.48591     -2.0251256      1329.7216     -4.9556223e-11 -4.7253425e-11  247180.74    
       795   0             -73756.763      102.15757      100.04759      136.85486      1329.9747      9.6489304e-12  1.5659362e-12  247175.5     
       800   0             -73756.815      108            59.172194      299.34284      1330.688       1.0201909e-11 -8.6589562e-12  247168.35    
       805   0             -73756.957     -443.40057     -434.94609     -345.49668      1328.7894      9.5538112e-12  6.8649313e-11  247253.25    
       810   0             -73757.21      -38.668631      155.06661      151.82389      1330.2386      5.8605659e-11 -3.7949755e-11  247183.11    
       815   0             -73757.268     -75.774939     -118.02456     -54.41619       1329.9945      2.7423232e-11 -4.2735113e-11  247208.66    
       820   0             -73757.32       49.217247     -216.25347      151.85587      1332.6068      4.7895213e-11 -3.1546367e-11  247196.2     
       825   0             -73757.393     -52.815038      10.951834      56.759516      1330.4815      2.0079074e-11  2.1230397e-11  247197.1     
       830   0             -73757.49       441.19536      253.96595      231.76814      1333.7216     -4.2007651e-11 -1.3311635e-11  247153.63    
       835   0             -73757.6        189.6059       202.56357      37.477874      1332.6598     -6.7541248e-11 -1.2250918e-11  247180.13    
       840   0             -73757.713     -98.993496     -179.68038     -15.947856      1331.4035      7.9435647e-11  1.7222569e-11  247214.66    
       845   0             -73757.884      232.02634      278.2363       356.51584      1333.828       1.6834874e-11  4.5461069e-11  247159.93    
       850   0             -73758.04       191.40367      313.01401      191.27077      1333.7566     -3.9402478e-11  5.2045353e-12  247170.73    
       855   0             -73758.202      58.247694     -180.5845       122.09104      1332.8509      4.029508e-12   6.3458995e-11  247204.62    
       860   0             -73758.311     -150.42341     -233.38774     -203.77727      1329.8203      6.9529083e-12  4.4480195e-11  247235.6     
       865   0             -73758.352      94.193862     -240.18131     -174.45805      1331.2124      3.0023324e-11  3.1865246e-11  247223.29    
       870   0             -73758.449      432.01931      475.34147      396.76652      1337.803       5.7209983e-11 -3.4547091e-12  247144.15    
       875   0             -73758.523     -127.05806     -27.865099     -58.822736      1330.2272      1.1917427e-10  7.0823038e-11  247219.29    
       880   0             -73758.666     -260.69635     -39.403729     -146.83582      1329.8363      6.4326773e-11  7.4871391e-11  247232.3     
       885   0             -73758.706      540.58528      745.95385      532.62295      1342.0395      8.1055157e-11 -3.2247008e-12  247120.73    
       890   0             -73758.814     -217.88755     -191.42027     -199.35405      1330.2738      1.0700778e-10  1.4080456e-10  247241.47    
       895   0             -73758.897     -398.04174     -467.10276     -5.8773161      1337.3283      1.8214446e-10  2.0617869e-10  247252.61    
       900   0             -73758.993     -81.896262     -92.579161     -54.952719      1331.5407      2.4030079e-10  8.3162448e-11  247224.24    
       905   0             -73759.059      183.12231      226.11526      104.32742      1335.1051      1.3044899e-10  4.5409603e-11  247189.36    
       910   0             -73759.148     -145.60276     -351.36634     -161.32803      1332.5832      8.543413e-11   1.0967615e-10  247246.48    
       915   0             -73759.227      134.43967      5.7803376      60.66749       1334.3913      5.3695887e-11  1.5841668e-11  247205.48    
       920   0             -73759.322     -189.13265     -311.43129     -255.97641      1331.5887      1.3591713e-10  8.7112196e-11  247253.66    
       925   0             -73759.447     -92.142506      25.351995      40.483749      1332.8103      6.3317326e-11  1.2847661e-11  247218.35    
       930   0             -73759.689     -164.55427     -59.84746       86.445909      1334.2827      1.3487363e-10  8.3392333e-11  247225.29    
       935   0             -73759.786      123.36065      128.34043      152.28731      1335.8685      6.1733033e-11 -3.8729937e-11  247200.74    
       940   0             -73759.912     -9.362427       126.02574     -214.43787      1333.5211      5.0053047e-11 -1.6116436e-12  247229.1     
       945   0             -73759.951     -8.455639       8.9978064     -49.587704      1333.9178      1.0420594e-10  1.0434408e-10  247225.15    
       950   0             -73760.157      238.04162      129.17615      282.92932      1338.2331      6.02385e-11   -2.9013956e-12  247191.85    
       955   0             -73760.261      54.625103     -106.63298      95.018956      1336.4998      4.1213126e-11 -9.7622153e-12  247222.53    
       960   0             -73760.362      2.3555619     -47.439576     -73.26162       1335.1322      4.6852111e-11  7.4595008e-12  247232.64    
       965   0             -73760.437     -24.862354      26.942868     -195.6449       1334.8602      2.2539136e-11  1.2201984e-11  247238.44    
       970   0             -73760.475     -60.495859     -73.488202     -19.274946      1335.7151      8.1340037e-11  6.920695e-11   247234.93    
       975   0             -73760.513     -256.88946     -313.84416     -44.735923      1338.2856      7.1456847e-11  1.7449836e-11  247256.9     
       980   0             -73760.58      -313.3164      -320.10914     -280.79899      1336.5162      1.0238994e-10  1.657391e-12   247273.78    
       985   0             -73760.659     -148.82233     -149.50386     -123.68107      1336.0439      6.1697649e-12  4.5904893e-11  247250.25    
       990   0             -73760.769     -130.19263     -133.81806     -114.71718      1336.3587      4.0425928e-11  2.0259007e-12  247249.31    
       995   0             -73760.857     -464.10772     -449.18327     -260.53384      1340.913       3.8877313e-11  3.5447639e-12  247288.53    
      1000   0             -73760.925      608.43944      544.17946      471.99918      1346.2637     -3.2887679e-11  9.0187781e-11  247152.81    
      1005   0             -73760.984     -191.65333     -246.1274      -250.92097      1336.9812     -1.2315659e-11  1.818574e-11   247267.3     
      1010   0             -73761.111      301.9837       259.44126      205.92294      1341.2105     -8.2549868e-11  1.3728377e-10  247197.08    
      1015   0             -73761.245      178.36171     -137.63226     -21.834922      1339.5999     -6.4694473e-12  6.819396e-11   247234.86    
      1020   0             -73761.305     -39.766643     -43.727715     -39.452883      1338.5649      8.8865863e-12  8.2649857e-11  247242.38    
      1025   0             -73761.396      289.31612      220.13921      180.10088      1341.8754     -2.9910563e-11  1.4948374e-10  247203.79    
      1030   0             -73761.504      200.90785     -36.590104     -161.77655      1340.3293     -2.0466966e-11  6.8100434e-11  247240.07    
      1035   0             -73761.548     -50.769855     -144.38188     -183.85354      1339.4877     -7.2676527e-11  7.946765e-11   247258.36    
      1040   0             -73761.582      143.44676      73.10163       33.069137      1340.7754      4.7129394e-11  1.5273884e-10  247227.37    
      1045   0             -73761.616     -21.467579      115.81175      106.22275      1341.0203     -8.0582043e-13  1.232675e-10   247229.53    
      1050   0             -73761.645     -183.89649     -80.143383     -76.69565       1340.8612      5.3063227e-11  1.3978304e-10  247256.57    
      1055   0             -73761.696     -259.71677     -351.68826     -280.36225      1341.635       2.3846958e-11  2.8404582e-11  247284.75    
      1060   0             -73761.777     -70.014408     -244.34099     -156.04664      1341.4114      1.4709889e-11  4.0883822e-11  247264.65    
      1065   0             -73761.815      821.05991      682.30716      661.63377      1350.2668     -1.0594833e-11 -1.0779091e-11  247135.02    
      1070   0             -73762.347      603.43379      597.97878      565.51842      1350.0487     -5.7344267e-12 -2.0035949e-11  247160.98    
      1075   0             -73762.406     -234.50679     -253.96513     -164.44478      1343.6698      4.1456718e-11  4.4288021e-11  247280.21    
      1080   0             -73762.517     -263.50288     -201.54271     -82.338202      1344.8418      7.4674052e-11  7.499632e-11   247275.84    
      1085   0             -73762.623     -250.02786      118.30984     -43.360941      1343.928       1.9866774e-11  2.3296843e-11  247260.08    
      1090   0             -73762.662     -14.226824     -47.42519      -21.306644      1343.4453     -1.0520609e-11  1.3306153e-11  247255.46    
      1095   0             -73762.73       405.31915      190.88883      333.83303      1346.244       7.0619627e-11  7.018214e-11   247205.95    
      1100   0             -73762.835      79.528491      87.32169       50.97592       1343.9175      3.6628292e-11  1.30766e-11    247243.04    
      1105   0             -73762.888     -115.27318     -120.13204     -104.85968      1344.3038      3.8626851e-11  2.9004667e-12  247271.02    
      1110   0             -73762.927      194.87887      183.10819      260.67435      1345.0273      6.0254069e-11  6.1336201e-11  247222.45    
      1115   0             -73762.962      364.32029      385.82888      119.08631      1346.8319      2.6501637e-11 -4.4069621e-11  247214.07    
      1120   0             -73763.062      200.80652      165.43423      28.179882      1344.6837      5.9421489e-11  3.071223e-11   247237.9     
      1125   0             -73763.167     -343.14242     -200.90662     -355.66878      1345.28        5.9866083e-11 -1.2889276e-11  247303.39    
      1130   0             -73763.257     -260.88678     -94.14783      -281.88453      1344.7268      8.6592493e-11  1.1554873e-11  247291.46    
      1135   0             -73763.332      504.78532      471.75571      316.73797      1349.7963      7.3132266e-11  4.9875469e-11  247196.33    
      1140   0             -73763.381     -115.30804     -115.33417     -88.542466      1345.3514      6.0977738e-11  1.0446092e-10  247275.57    
      1145   0             -73763.433      395.93955      232.51457      159.85038      1347.4284      3.0276705e-11  1.1442983e-10  247222.34    
      1150   0             -73763.537      78.626727      389.98496      143.84199      1345.9084      1.236577e-10   6.1932453e-11  247231.93    
      1155   0             -73763.61       88.599911      3.2551339     -28.817387      1345.2356      5.2556108e-11  1.323226e-10   247259.67    
      1160   0             -73763.846     -92.205669     -9.4496465      7.8849513      1347.1669      9.7350588e-11  1.3351464e-10  247269       
      1165   0             -73763.919      257.10664     -37.50024       45.833151      1347.2386      1.5078954e-11  1.2219708e-10  247252.48    
      1170   0             -73763.975     -125.62945     -31.478351     -65.914608      1347.678       6.6432816e-11  9.1891823e-11  247277.29    
      1175   0             -73764.053      139.98854     -332.29887      5.2057803      1349.4322      2.9257365e-11  8.263882e-11   247275.4     
      1180   0             -73764.128     -114.4339      -174.8325      -67.143076      1349.2863      8.8436211e-11  1.2190478e-10  247285.01    
      1185   0             -73764.212      34.765867      6.1165353      23.108411      1348.5891      4.0860654e-11  9.4244235e-11  247265.55    
      1190   0             -73764.268      352.65601     -47.086231      262.89787      1351.2013      6.3864252e-11  1.5079699e-10  247240.26    
      1195   0             -73764.34       47.89105       265.05083     -44.110367      1348.7767      6.1004842e-11  1.4410955e-11  247259.01    
      1200   0             -73764.372      113.19019      127.04793      97.299915      1349.4019      6.7590104e-11  5.3040735e-11  247254.1     
      1205   0             -73764.423     -100.65012     -178.61401      48.029024      1351.9942      9.3616697e-11  7.8631581e-11  247281.38    
      1210   0             -73764.455      419.828        344.30157      585.34177      1353.43        5.0587752e-11  5.3419929e-11  247203.86    
      1215   0             -73764.521     -44.288722     -45.154082     -50.115344      1350.1609      3.627761e-11   1.8829369e-11  247279.5     
      1220   0             -73764.607      155.13474      179.58642     -263.31445      1349.9859     -1.6781069e-11 -4.3690631e-11  247274       
      1225   0             -73764.655     -175.18156     -189.08567     -214.35212      1351.5223      1.3902003e-11  2.9185e-11     247303.42    
      1230   0             -73764.702      332.85686      280.71487     -173.88867      1352.9042     -1.3190959e-11 -1.6482944e-11  247257.12    
      1235   0             -73764.757      5.5156473      6.7696956     -203.15969      1350.2258      4.7486341e-11 -1.7309611e-11  247286.89    
      1240   0             -73764.824     -62.807498     -7.1154622      15.774077      1352.7167      8.0865321e-11  9.4469479e-11  247278.52    
      1245   0             -73764.965     -522.04937     -619.28319     -255.60078      1362.971       7.5251238e-11  8.4778459e-11  247345.87    
      1250   0             -73765.04       78.418116      160.80877     -111.65879      1352.693       1.2016032e-11  1.2752647e-11  247274.88    
      1255   0             -73765.23       70.548045      53.980947      22.472601      1355.2805      8.0199159e-11  4.6821208e-11  247274.25    
      1260   0             -73765.307      413.75013      423.22238      455.28251      1357.4069      9.6933262e-12 -2.486649e-11   247217.85    
      1265   0             -73765.424     -228.13031     -85.484094     -118.77695      1358.1099      2.5778363e-11  1.4454297e-11  247305.2     
      1270   0             -73765.531      14.414572     -366.20795     -91.681324      1359.3888      2.1405139e-11  1.8459055e-11  247306.46    
      1275   0             -73765.572      225.71193      133.4534       209.62616      1357.8187      1.7956298e-11  1.7864214e-11  247256.87    
      1280   0             -73765.625      260.47665     -112.02311      46.100375      1358.4212      7.9231586e-11  3.3469706e-11  247276.63    
      1285   0             -73765.665     -100.66312     -40.969312     -63.997022      1357.9222      5.4343487e-11  2.2234565e-11  247297.12    
      1290   0             -73765.702      1.8730991      443.14178      146.46012      1358.2492      9.3187859e-11 -8.8767882e-11  247258.79    
      1295   0             -73765.775      10.996706     -159.10102     -222.00528      1357.8809      5.618235e-11  -4.8840208e-11  247308.16    
      1300   0             -73765.818      207.98932      66.700108      48.349071      1358.6792      2.9441748e-11 -1.450219e-11   247273.47    
      1305   0             -73765.893      429.49181      439.73737      297.64179      1361.3229      1.1527671e-10 -7.5976264e-12  247233.08    
      1310   0             -73766.011     -124.08883      94.396532     -11.778784      1358.721       1.2496177e-10  1.8644139e-11  247293.81    
      1315   0             -73766.141      43.174551      28.171353      78.116487      1360.0506      1.0401944e-10 -8.1484579e-12  247285.36    
      1320   0             -73766.27       148.64476      160.72023      411.51442      1362.4617      7.1318731e-11 -9.6227339e-12  247256.87    
      1325   0             -73766.332     -148.23004     -146.57476     -69.080895      1362.7368      1.0338627e-10 -2.9966368e-11  247313.28    
      1330   0             -73766.548      112.166        134.95283      199.52937      1363.8536      8.2362499e-11 -9.2997344e-12  247275.67    
      1335   0             -73766.67       575.08311      486.77786      443.97068      1365.8792      1.9017655e-11 -9.762089e-11   247225.72    
      1340   0             -73766.749     -276.43307      51.072517      4.2668217      1366.4474      1.867502e-10   1.6479313e-11  247311.6     
      1345   0             -73766.788     -132.50256     -6.6838877      11.892436      1367.0325      1.6392118e-10 -6.3202408e-11  247307.61    
      1350   0             -73766.887      305.54898      281.42731      301.05742      1366.5132      4.8412592e-11 -8.8998136e-11  247258.66    
      1355   0             -73766.991      107.63309     -83.654775      105.60711      1368.3562      1.0505028e-10 -1.1094267e-10  247297.08    
      1360   0             -73767.059     -217.83458     -217.47605     -26.281343      1370.8134      2.184754e-10  -5.6155059e-11  247326.98    
      1365   0             -73767.157     -108.08986      150.78489     -88.893715      1367.8346      1.9975505e-10 -2.5225433e-11  247310.46    
      1370   0             -73767.238     -42.806695      72.77678       101.5591       1370.0355      1.1333482e-10 -5.3168852e-11  247300.65    
      1375   0             -73767.289     -238.3845      -215.7461      -112.86995      1371.1896      1.9971129e-10 -5.1090006e-11  247336.14    
      1380   0             -73767.417     -39.039591     -14.551822     -131.91747      1369.266       1.0632917e-10 -1.601842e-11   247320.51    
      1385   0             -73767.696     -72.34943      -91.26535       10.965862      1371.7683      7.4154134e-11 -3.1484437e-11  247320.85    
      1390   0             -73767.796      291.2813       301.91751      122.28781      1370.2623      6.3715613e-11 -3.6829834e-13  247281.02    
      1395   0             -73767.883      30.40805       24.708777     -46.620365      1370.0576      2.280821e-11  -4.36371e-11    247316.46    
      1400   0             -73768.008     -381.62515     -266.67547     -237.9883       1373.0163      1.3889536e-10  4.1834289e-11  247361.47    
      1405   0             -73768.1       -498.29375     -102.66697     -265.18487      1372.2445      1.2377662e-10  3.1893362e-11  247362.29    
      1410   0             -73768.205     -209.26675     -47.333863     -279.93005      1371.1787      1.2088415e-10  1.7765575e-11  247348.11    
      1415   0             -73768.25      -54.379746      119.57608     -69.456231      1371.3633      3.9263313e-11  4.7870862e-12  247321.94    
      1420   0             -73768.325      98.764741     -24.879034      19.03348       1372.842       6.3130885e-11  1.0448932e-11  247317.3     
      1425   0             -73768.396      116.97795     -73.25682      -149.84724      1372.0842      9.978945e-11  -2.3198285e-11  247329.1     
      1430   0             -73768.492     -226.84123     -140.46811     -200.54968      1374.8643      1.0755813e-10  8.2981303e-11  247352.35    
      1435   0             -73768.531      678.90516      631.79518      480.6742       1378.1242      1.9200944e-11 -6.6489601e-11  247237.32    
      1440   0             -73768.659      180.79368      553.69984      554.70991      1376.8435      3.5290488e-11 -1.6215668e-10  247260.68    
      1445   0             -73768.767     -97.760311     -65.088469     -138.53362      1375.5308      8.1166456e-11 -1.1322341e-11  247342.9     
      1450   0             -73768.803     -33.031375      51.112825     -196.19823      1374.1213      8.0753711e-11  3.5256394e-11  247338.34    
      1455   0             -73769.021     -543.43131     -485.15989     -130.84519      1381.597       1.1932365e-10  1.0450598e-10  247386.82    
      1460   0             -73769.143      126.02977      173.90815      107.47055      1378.9114      6.7274774e-11 -2.3936286e-12  247313.11    
      1465   0             -73769.172      9.510375      -187.68195     -21.63086       1380.6414      1.0206227e-10  2.9870762e-11  247342.62    
      1470   0             -73769.265     -58.954891     -210.34567     -136.93067      1380.3928      1.1001935e-10  3.8521731e-11  247354.73    
      1475   0             -73769.526     -711.8089      -667.55998     -561.78671      1381.3245      1.4706675e-10  4.9643367e-11  247434.8     
      1480   0             -73769.691      217.12842      335.31261      210.65882      1384.3483      7.3422624e-11 -1.0127258e-11  247304.12    
      1485   0             -73769.81      -436.19892     -505.48559     -67.790794      1388.8553      4.3117958e-11 -5.0618734e-12  247389.9     
      1490   0             -73769.919      208.26674     -46.060731      67.319879      1387.1916      2.8629185e-11 -3.1851119e-11  247332.94    
      1495   0             -73770.469     -11.25125       45.315825     -168.92617      1387.999       1.8639143e-11  2.7383432e-11  247360.1     
      1500   0             -73770.524      0.068327111   -85.930629      241.21185      1395.3367      1.5234514e-11 -5.0628295e-13  247343.18    
      1505   0             -73770.547      88.745798      42.032065      228.62144      1393.9675     -1.2151224e-11  6.4852556e-11  247334.36    
      1510   0             -73770.732     -587.11803     -709.54832     -517.84396      1393.7462     -4.0071777e-11  1.8816713e-11  247445.81    
      1515   0             -73770.792      135.45482      137.02716      136.99175      1393.7226      8.8371716e-12  8.2342188e-11  247336.66    
      1520   0             -73770.85      -54.376785      131.48824      248.31653      1395.6835     -3.095268e-11   3.7695531e-11  247340.14    
      1525   0             -73770.879     -276.09565     -259.35026     -190.60299      1394.0113     -8.3266546e-11  1.7440188e-11  247393.68    
      1530   0             -73770.933      279.03506      162.50146      171.5393       1394.6901      2.3244332e-12  4.575221e-11   247328.9     
      1535   0             -73771.132     -66.472206      23.772928      333.11071      1399.4462     -6.1466979e-11  7.0833156e-11  247344.69    
      1540   0             -73771.277      62.576191      147.91197      26.547524      1396.2053     -3.7969787e-11  3.8061835e-11  247352.52    
      1545   0             -73771.311     -51.855395     -20.582641     -36.54987       1397.0393     -7.0826031e-11  4.3167522e-11  247369.57    
      1550   0             -73771.363     -186.15983      228.41629     -146.60978      1395.8479     -4.7907263e-11  3.9117362e-11  247371.65    
      1555   0             -73771.4       -67.416561     -102.53781     -44.459499      1398.3731     -6.3645193e-11  6.129819e-11   247375.76    
      1560   0             -73771.473     -324.10863      57.122063     -177.63213      1397.578      -5.0135657e-11  6.6954915e-11  247389.4     
      1565   0             -73771.541     -11.65778      -166.38855      13.616371      1400.9782     -5.2830774e-11  1.3065032e-10  247374.81    
      1570   0             -73771.68      -104.67736     -106.76563     -45.631551      1400.9062     -4.1761844e-11  1.3382198e-10  247381.68    
      1575   0             -73771.948      82.128136      446.58233      125.54857      1402.1946     -1.0355829e-12  1.2615701e-10  247342.19    
      1580   0             -73772.016     -43.694638     -15.767229     -49.082726      1403.4294     -4.5972946e-11  1.9880193e-11  247379.51    
      1585   0             -73772.097     -67.817908     -129.73227     -59.33965       1405.2492     -2.6966227e-11  5.038911e-11   247387.64    
      1590   0             -73772.188      207.78816      207.33177      202.12426      1406.9661     -3.1458171e-11  4.151466e-11   247346.41    
      1595   0             -73772.226     -55.591238     -150.95917     -160.43995      1405.1543      2.4181402e-11  1.6933884e-11  247395.5     
      1600   0             -73772.33      -57.914936      139.55023     -170.71549      1403.7833     -6.7508386e-11  4.7858706e-12  247384.77    
      1605   0             -73772.38       29.837509     -142.25248      185.52474      1411.7363     -4.0704595e-11  2.7151737e-11  247374.52    
      1610   0             -73772.438      7.9451898     -2.4846427      21.513606      1408.3812     -2.6760095e-11  3.9484371e-11  247378.89    
      1615   0             -73772.746      918.86338      948.67806      754.04596      1416.5982     -4.8850077e-11  2.5553056e-11  247258.2     
      1620   0             -73773.068      144.80899      17.213743      90.624755      1413.1995     -2.2526473e-11  4.8412358e-11  247377.42    
      1625   0             -73773.114     -49.372617      21.522086     -43.803719      1412.2383     -4.5394897e-11  2.7287556e-11  247394.83    
      1630   0             -73773.27       466.94548      521.17196      338.51099      1414.8392      1.2565724e-11  2.3520457e-11  247329.38    
      1635   0             -73773.454      45.13452       64.562538      25.951115      1414.9749     -4.2933919e-11  1.4449358e-11  247389.73    
      1640   0             -73773.492     -61.231128     -24.066258     -71.317435      1415.1156      1.0330193e-11  4.5185966e-11  247405       
      1645   0             -73773.529     -176.38424     -302.25503     -192.1521       1416.7644      1.1962459e-11  9.9380427e-11  247430.63    
      1650   0             -73773.575      162.0267      -67.527443     -17.173202      1416.154       5.7520256e-12  6.2766103e-11  247394.34    
      1655   0             -73773.667      121.29036     -45.380776      41.520054      1417.9229      4.3968658e-11  6.3594647e-11  247393.36    
      1660   0             -73773.837     -42.384539     -90.453126      111.49761      1421.9301      2.6205409e-11  5.3193069e-11  247402.08    
      1665   0             -73773.978      123.56808      253.79705      106.66952      1420.2646      9.4338255e-13  1.0699339e-10  247381.14    
      1670   0             -73774.021     -90.827055     -66.727837     -77.021599      1421.0685     -3.1541212e-11  2.0981463e-11  247417.06    
      1675   0             -73774.114      251.76272      237.36495      227.95543      1423.0892      3.1409029e-11  1.0966698e-10  247370.96    
      1680   0             -73774.226      49.786244     -129.25133     -59.441013      1423.1081      4.536815e-11   7.3021556e-11  247415.22    
      1685   0             -73774.276     -30.167452     -193.65254     -121.89156      1423.5783     -1.1042456e-12  4.6700386e-11  247426.46    
      1690   0             -73774.32      -108.62494      130.24224      36.98348       1424.78       -3.7892331e-11  1.3629276e-10  247407.49    
      1695   0             -73774.564     -26.110446     -83.587181      173.04855      1430.183      -3.2853564e-11  1.6297944e-10  247409.45    
      1700   0             -73774.631      5.5508591     -9.9857144      32.377521      1428.1991     -7.9348826e-11  1.7254746e-10  247413.42    
      1705   0             -73774.791      170.15585      1.2693592      12.550226      1428.3654     -4.559944e-11   2.2334983e-10  247408.55    
      1710   0             -73775.023     -51.547174      102.84315     -120.31026      1430.3076     -1.453923e-11   2.1597198e-10  247426.51    
      1715   0             -73775.097      193.47217      48.162837     -129.64892      1428.7739     -2.967753e-11   1.3679271e-10  247418.7     
      1720   0             -73775.135     -187.97645     -39.414286      186.25089      1436.882      -3.9339163e-11  1.6112953e-10  247423.85    
      1725   0             -73775.168     -70.262881     -82.842083      111.34342      1435.9218     -2.0198653e-11  1.5307726e-10  247424.48    
      1730   0             -73775.229      143.8791       266.86215     -124.48695      1430.3399     -1.152847e-10   9.5752328e-11  247413.45    
      1735   0             -73775.253     -103.07719     -120.05568     -102.75165      1434.7594     -1.7275785e-11  1.159847e-10   247441.6     
      1740   0             -73775.303      37.657532      42.641217      19.707055      1434.6471     -5.7468072e-11  1.3738964e-10  247420.9     
      1745   0             -73775.35      -216.06446     -240.74985     -162.89786      1437.4578     -3.0615909e-11  1.494222e-10   247457.98    
      1750   0             -73775.389     -374.74391     -308.54903     -401.34057      1437.9761     -9.3378969e-11  1.1219276e-10  247484.23    
      1755   0             -73775.481      41.369312      67.276271     -10.226046      1436.5772      3.0965147e-11  8.8156347e-11  247424.37    
      1760   0             -73775.528     -160.87461     -118.87678     -416.08139      1436.0389     -2.3852337e-11  7.8848419e-11  247467.62    
      1765   0             -73775.611      169.07884      191.67357      71.517469      1437.8983      6.0576481e-11  5.825281e-11   247410.08    
      1770   0             -73775.696      53.381029      57.218777      227.41006      1442.6529      3.3750151e-11  4.2377491e-11  247414.39    
      1775   0             -73775.748     -117.3963      -100.90638      41.861449      1443.1181      2.4107891e-11  5.4978874e-11  247441.55    
      1780   0             -73775.865      237.16908      233.06468      178.12079      1442.1995     -1.2055809e-11  4.0676851e-11  247403.31    
      1785   0             -73775.922      39.820506     -3.155044       60.854471      1443.1959      1.7805617e-11  5.07023e-11    247431.22    
      1790   0             -73775.956      43.456458      86.455416     -54.122281      1441.8747      3.6185869e-11 -9.6618342e-12  247434.51    
      1795   0             -73776.165     -117.85671     -404.92119     -391.17351      1444.2955     -6.9228208e-12 -3.1049196e-11  247487.9     
      1800   0             -73776.349      107.29388     -21.308907      356.75688      1452.2476     -4.3020771e-11  7.9461895e-11  247419.53    
      1805   0             -73776.386      181.01093      146.61985      206.11646      1449.4214     -5.0751095e-11  1.089101e-10   247417.64    
      1810   0             -73776.473      175.08539      194.25495      109.13713      1449.5046     -1.9600618e-11  1.2298697e-10  247423.19    
      1815   0             -73776.551      24.308777     -81.594996      119.92256      1453.3804     -3.6253573e-11  8.8839658e-11  247443.45    
      1820   0             -73776.62       48.92855       97.366468      94.814211      1453.1095     -8.7645736e-12  1.3190568e-10  247437.06    
      1825   0             -73776.654     -62.319799      157.93051     -156.20882      1452.3553      4.9685211e-12  1.6791761e-10  247455.54    
      1830   0             -73776.756     -40.03739       2.6324674      35.154061      1455.4546     -6.7973206e-11  1.7716739e-10  247451.62    
      1835   0             -73776.812      177.13452      178.19561      290.98709      1456.6362     -1.4424663e-11  7.3664709e-11  247418.64    
      1840   0             -73777.567     -147.34148     -126.42805     -65.200982      1467.1633     -5.2186714e-11  4.8299735e-11  247482.85    
      1845   0             -73777.624      313.40442     -171.61846     -241.07706      1460.0833      1.106573e-10   9.3107615e-11  247471.88    
      1850   0             -73777.678      293.5176       254.89644      280.77696      1466.1604      3.5796119e-11  8.5257337e-11  247425.36    
      1855   0             -73777.744     -600.09403     -658.27533     -501.87211      1471.0551      6.4678905e-11  4.6261627e-11  247558.38    
      1860   0             -73777.921      5.9128851      155.03091     -205.6038       1470.1943      1.6215351e-11  9.0345958e-11  247476.13    
      1865   0             -73777.949     -57.478903     -88.691117     -31.764106      1471.4456      7.2726043e-11  3.1648019e-11  247481.35    
      1870   0             -73778.056      129.24613      286.45774      186.16059      1472.995       2.5717813e-11  1.0328531e-10  247444.8     
      1875   0             -73778.621      199.81342      80.739077     -84.731262      1478.3174      1.7250427e-12  8.3354065e-11  247475.36    
      1880   0             -73778.687      51.025535      47.323545      46.011677      1482.4003      7.8200869e-13  7.1254792e-11  247478.74    
      1885   0             -73778.722     -1.1406276     -17.666196     -48.061865      1482.9666      1.4282502e-11  7.4747392e-11  247490.13    
      1890   0             -73778.749      64.55233       29.119834     -168.78604      1481.8353      4.096135e-11   5.3219856e-11  247491.46    
      1895   0             -73778.889      175.29706      33.048777     -33.444275      1484.6828      1.4421048e-11  3.1970107e-11  247480.66    
      1900   0             -73778.924      49.887818      68.178398      69.819055      1488.0704     -1.8561059e-11  7.4428238e-11  247480.7     
      1905   0             -73779.065      669.98448      375.91461      553.07336      1488.8243      2.0705917e-13  9.2394402e-11  247410.77    
      1910   0             -73779.227      58.948767      69.068504      31.350347      1493.1979     -3.3533197e-11  4.0709025e-11  247487.42    
      1915   0             -73779.248     -60.511957     -73.97144      -21.549261      1493.9487     -2.1434105e-11  7.9342984e-11  247503.38    
      1920   0             -73779.397     -492.09685     -871.08416     -841.76863      1494.997       1.8390416e-13  2.0919099e-11  247610.46    
      1925   0             -73779.75      -24.224101     -6.99042       -30.210259      1501.9484     -2.9206931e-11  5.0732669e-11  247507.5     
      1930   0             -73779.778      164.56972      467.52026      46.939879      1503.4481     -2.1436734e-11 -1.4674503e-11  247473.02    
      1935   0             -73779.84      -94.968812     -151.11715      9.8953823      1504.8843     -2.1593875e-11  1.8075384e-11  247517.31    
      1940   0             -73779.864      16.074994     -19.933355      95.029018      1505.5802     -5.6115487e-12 -5.7495376e-12  247501.4     
      1945   0             -73780.229      354.76267      69.102595     -59.594838      1509.151      -6.9686224e-12  8.9235164e-12  247494.9     
      1950   0             -73780.703     -134.54085     -52.135616      51.156517      1520.7857      9.9801152e-12  1.1405846e-11  247528.23    
      1955   0             -73780.759     -184.91529     -145.89817     -10.68349       1521.4752      2.5753971e-11 -2.4834186e-11  247539.43    
      1960   0             -73781.283      55.766599      102.71835     -36.027617      1533.8865      2.9894578e-12  1.1447324e-10  247526.38    
      1965   0             -73781.526     -242.8318      -168.19318      4.6721061      1537.7706     -1.4186736e-11  1.0121558e-10  247555.87    
      1970   0             -73781.647      6.3871191     -28.544433     -23.901483      1542.2553      5.3347288e-12  1.0885606e-10  247540.47    
      1975   0             -73783.33       61.50857      -6.7153655     -28.629834      1588.8057     -7.8402858e-12  8.6036216e-11  247567.17    
      1980   0             -73783.386      54.680647     -264.31689      295.61277      1594.0147     -6.0171282e-11  1.1431854e-10  247562.6     
      1985   0             -73783.433     -39.424379     -49.355696     -55.586598      1591.4489     -4.6809875e-11  1.1766844e-10  247577.32    
      1990   0             -73783.455      40.421855      60.600515      87.743444      1593.3493     -1.0645592e-10  1.2622958e-10  247560.73    
      1995   0             -73783.502      323.99114     -19.690158      174.11599      1596.7612     -1.3184766e-10  1.0586443e-10  247545.95    
      2000   0             -73783.578     -80.071498     -45.115454      101.96247      1596.8229     -7.9159788e-11  8.4424845e-11  247572.82    
      2005   0             -73783.609      7.2383984      29.906308      59.486513      1597.9996     -7.0585354e-11  9.035845e-11   247567.91    
      2010   0             -73783.656      48.599127     -19.046887      157.84877      1600.4932     -7.9001851e-11  1.1799694e-10  247563.41    
      2015   0             -73783.676     -105.20387     -275.207        78.125573      1601.1975     -1.1044469e-10  1.1793948e-10  247587.5     
      2020   0             -73783.718      2.0291233     -54.998535     -103.87227      1600.9089     -1.6180762e-10  1.3587426e-10  247583.03    
      2025   0             -73783.786      62.710371      108.61275      38.579579      1603.9217     -2.0660767e-10  1.419077e-10   247565.74    
      2030   0             -73783.893      6.0762935      19.829098      72.960865      1607.2331     -1.5767611e-10  1.217633e-10   247572.35    
      2035   0             -73783.975     -168.66503      303.95137      86.442415      1607.8397     -9.3508079e-11  1.1569527e-10  247568.62    
      2040   0             -73784.006      157.75143      317.7015       221.98565      1613.1252     -1.5325577e-10  1.3690696e-10  247544.84    
      2045   0             -73784.259      191.59119      312.27528      377.91924      1623.8915     -1.0559156e-10  1.2113596e-10  247538.78    
      2050   0             -73784.418      732.96085      988.09268      809.04571      1638.4483     -1.0176066e-10  1.1068542e-10  247460.42    
      2055   0             -73784.572      241.90057      123.51958     -109.65218      1633.8305     -9.7941968e-11  1.4167099e-10  247577.59    
      2060   0             -73784.635     -71.642206     -162.9428      -82.590161      1633.0485     -1.1965511e-10  1.494252e-10   247605.37    
      2065   0             -73784.711     -97.104642     -80.361888      94.87366       1636.4726     -1.4692626e-10  1.7007674e-10  247593.92    
      2070   0             -73784.854      244.67322     -105.06688      30.565771      1645.1777     -9.3341255e-11  1.51783e-10    247584.22    
      2075   0             -73784.89      -254.24449     -195.85141     -207.11869      1640.2027     -1.32632e-10    1.4302189e-10  247627.03    
      2080   0             -73784.916      40.849371      17.923743      34.87103       1644.7737     -1.2081246e-10  1.4373349e-10  247589.12    
      2085   0             -73785.001      23.025863      5.7089143      147.35058      1648.8286     -1.1640012e-10  1.1794047e-10  247585.42    
      2090   0             -73785.173      81.379758      62.924556      130.42451      1656.7309     -1.1233168e-10  1.4764512e-10  247583.54    
      2095   0             -73785.277     -8.0985087      7.7499033      26.363817      1659.6563     -1.3460165e-10  1.3536029e-10  247597.97    
      2100   0             -73785.319     -4.0012346      45.213152      7.3303663      1661.261      -1.3421092e-10  1.5715413e-10  247597.82    
      2105   0             -73785.365     -97.29764       95.202407      367.21974      1664.9817     -1.1074662e-10  1.1458608e-10  247580.67    
      2110   0             -73785.387      151.53557      290.23592      284.47682      1667.2598     -1.2496322e-10  1.3804584e-10  247564.24    
      2115   0             -73785.45       129.98541      83.446725     -166.78527      1667.7324     -9.8920952e-11  1.4528943e-10  247601.7     
      2120   0             -73785.501     -146.3317      -77.603912      172.01917      1670.1136     -1.3052946e-10  1.1646042e-10  247603.86    
      2125   0             -73785.534     -142.97269     -211.43149     -126.66476      1670.0586     -1.3125257e-10  1.0008295e-10  247627.5     
      2130   0             -73785.642     -289.89505     -403.53541     -393.49224      1673.2076     -1.0914799e-10  1.1202091e-10  247660.64    
      2135   0             -73785.765     -308.18784      120.54244      112.45886      1679.3665     -1.1654939e-10  1.3374444e-10  247610.2     
      2140   0             -73785.802     -75.471386     -72.427171     -68.069838      1682.168      -1.105458e-10   1.0220142e-10  247618.51    
      2145   0             -73785.828      62.67538       47.070226      95.31262       1685.2469     -1.2108438e-10  1.0634827e-10  247597.21    
      2150   0             -73785.873      83.746397      231.38659      341.11887      1688.844      -1.3270614e-10  1.1610638e-10  247574.47    
      2155   0             -73785.924      28.446445      227.32596      256.16655      1690.2585     -1.1042374e-10  1.0984897e-10  247582.94    
      2160   0             -73785.949      103.69435      67.372851      116.14507      1691.6069     -1.1662554e-10  1.1945324e-10  247594.95    
      2165   0             -73785.967     -20.112919      64.624251     -71.302993      1690.2008     -1.2634123e-10  9.1997377e-11  247612.29    
      2170   0             -73786.009     -25.155178     -146.14317     -266.88973      1691.7599     -1.4681054e-10  1.199401e-10   247633.98    
      2175   0             -73786.035      306.68674     -54.511553     -141.06107      1697.1848     -1.1517168e-10  1.2326358e-10  247606.82    
      2180   0             -73786.08      -35.054239     -50.431852     -23.833013      1696.5325     -8.0363935e-11  8.367412e-11   247617.19    
      2185   0             -73786.099      58.388884      94.452532      20.754168      1698.2661     -5.8368162e-11  1.0878225e-10  247603.77    
      2190   0             -73786.141      56.605826     -58.6765       -252.43036      1699.2123     -7.8866613e-11  9.8841864e-11  247627.06    
      2195   0             -73786.215      66.380555      77.070975      348.12898      1706.7224     -1.4056201e-10  1.3302123e-10  247587.11    
      2200   0             -73786.269     -18.977664     -10.750315     -20.275964      1706.2211     -1.2215502e-10  1.5070536e-10  247617.2     
      2205   0             -73786.319     -24.404064     -173.33516      123.77257      1710.7689     -1.359244e-10   1.5056736e-10  247617.32    
      2210   0             -73786.346     -207.58015     -195.6451      -164.56705      1708.593      -1.500912e-10   1.171309e-10   247644.41    
      2215   0             -73786.462      15.247888      169.33504      274.54501      1718.4741     -1.5660529e-10  1.2460374e-10  247593.24    
      2220   0             -73786.514     -112.32319      190.69545      188.10234      1719.1446     -1.4036837e-10  1.3967871e-10  247604.26    
      2225   0             -73786.542      72.330324      65.610744      74.064345      1721.6355     -1.9459564e-10  1.6997522e-10  247607.85    
      2230   0             -73786.565      187.06155      166.16179      125.52228      1724.2637     -2.0226116e-10  1.8143272e-10  247595.09    
      2235   0             -73786.578      108.34474     -88.189795      23.249709      1723.5478     -1.8665812e-10  2.2500119e-10  247616.58    
      2240   0             -73786.591     -85.077579     -109.95598     -88.997918      1721.5346     -1.8515118e-10  1.9717279e-10  247633.64    
      2245   0             -73786.627      40.752449      407.56473      239.83403      1726.3506     -1.8612954e-10  1.8042794e-10  247585.82    
      2250   0             -73786.729     -2.4243379     -78.166291     -52.932537      1729.0471     -2.0294679e-10  2.2071527e-10  247628.08    
      2255   0             -73786.753     -302.58578      40.381119      67.946297      1729.0448     -1.9007228e-10  2.0940361e-10  247630.87    
      2260   0             -73786.821      86.130428      175.76538      61.123336      1735.28       -1.4553916e-10  1.9829739e-10  247607.06    
      2265   0             -73786.926     -119.97015     -98.440487     -216.39052      1738.1426     -1.5319264e-10  2.1127483e-10  247646.86    
      2270   0             -73787.033      27.23288      -29.913164     -158.8714       1745.4579     -1.1132006e-10  1.8627663e-10  247634.77    
      2275   0             -73787.108     -100.72977     -47.856551      24.110387      1750.0826     -1.0201167e-10  1.9207063e-10  247632.72    
      2280   0             -73787.134      337.24257     -8.0866494      306.75587      1757.0245     -8.641786e-11   1.4446657e-10  247593.58    
      2285   0             -73787.174      163.28875     -28.830759     -185.18553      1754.0841     -7.2406132e-11  1.6393668e-10  247631.43    
      2290   0             -73787.215     -136.86524      121.20319      155.07256      1756.5274     -3.9675672e-11  1.4491045e-10  247620.77    
      2295   0             -73787.238     -72.225574     -146.94714     -77.743306      1757.3111     -8.6193568e-11  1.4926428e-10  247643.52    
      2300   0             -73787.296      86.062463     -4.8353717     -235.86339      1760.2937     -9.6239879e-11  1.2756898e-10  247638.67    
      2305   0             -73787.327      210.79335      187.89067      205.35522      1765.6223     -1.1439345e-10  1.4694592e-10  247599.51    
      2310   0             -73787.359     -37.65625      -40.503142     -41.626467      1763.7682     -7.2864343e-11  1.2219143e-10  247636.57    
      2315   0             -73787.391     -215.81084     -219.30421     -461.06049      1761.6725     -3.3599439e-11  9.4363403e-11  247677.14    
      2320   0             -73787.428      33.430038      37.786882      85.505162      1768.5816     -1.206809e-10   1.126355e-10   247623.21    
      2325   0             -73787.573     -9.4008654      434.14138     -6.0482428      1776.7112     -1.010077e-10   1.3659257e-10  247614.54    
      2330   0             -73787.609      43.598915      58.253062      72.116083      1778.5953     -1.1589879e-10  1.2808173e-10  247625       
      2335   0             -73787.627     -29.265217     -47.149809     -77.449375      1778.1026     -1.2719946e-10  1.6595231e-10  247642.1     
      2340   0             -73787.641     -101.88876      20.272716      82.494822      1779.1411     -1.3589241e-10  1.5009767e-10  247633.73    
      2345   0             -73787.664     -240.66042      39.730713      141.91438      1779.5529     -1.6048544e-10  1.5133717e-10  247636.57    
      2350   0             -73787.806      68.589087      62.172037      56.911293      1789.708      -1.3796482e-10  1.5350368e-10  247627.12    
      2355   0             -73787.836     -59.943588     -83.197519     -36.228092      1789.5929     -1.6328364e-10  1.2126752e-10  247645.73    
      2360   0             -73787.882     -400.62434     -235.26568     -591.48872      1786.1741     -1.2335446e-10  1.3139732e-10  247701.25    
      2365   0             -73787.933      75.697802      69.026004      60.81012       1796.8325     -1.6246785e-10  1.4738877e-10  247627.96    
      2370   0             -73787.978     -49.739743     -55.066848     -37.526618      1797.785      -1.0099489e-10  9.3823654e-11  247645.95    
      2375   0             -73788.002      219.2906       261.34216      244.53796      1803.8669     -1.0365621e-10  1.5820848e-10  247602.76    
      2380   0             -73788.156     -222.83504     -122.10048      81.137475      1807.6391     -1.1544886e-10  1.5629151e-10  247653.29    
      2385   0             -73788.179     -25.19487       91.82331       277.29632      1811.7952     -1.0183183e-10  1.2914023e-10  247622.86    
      2390   0             -73788.211      111.56386      125.46055      182.44336      1814.5734     -1.1190116e-10  1.5833509e-10  247620.46    
      2395   0             -73788.231     -75.573044     -53.540228     -14.423339      1812.547      -8.8053348e-11  1.5018026e-10  247649.15    
      2400   0             -73788.264     -337.47481     -390.54503     -132.64597      1813.7604     -9.0407727e-11  1.7176089e-10  247684.81    
      2405   0             -73788.297     -26.856364     -57.788868     -277.99469      1815.8759     -7.6258297e-11  1.6763955e-10  247662.27    
      2410   0             -73788.44      -54.858194     -52.081121      8.0609379      1826.257      -6.9872552e-11  1.3859588e-10  247649.55    
      2415   0             -73788.633      89.725835      9.0922542      137.30566      1840.0278     -8.757575e-11   1.612681e-10   247634.8     
      2420   0             -73788.665     -2.2301964      18.443636     -33.871707      1839.6303     -6.8999357e-11  1.5394993e-10  247648.79    
      2425   0             -73788.737     -270.18698      103.41537      124.64639      1843.2854     -6.7987636e-11  1.582241e-10   247650.26    
      2430   0             -73788.848      80.016038      171.10127     -1.2724468      1853.2374     -7.4197024e-11  1.6011663e-10  247638.18    
      2435   0             -73789.018     -497.06171     -504.71777     -570.63032      1858.0254     -1.3115133e-10  1.6474335e-10  247731.84    
      2440   0             -73789.301      44.347288     -24.526532      76.063121      1884.6282     -7.4859969e-11  1.9909028e-10  247650.2     
      2445   0             -73789.371      44.1526        54.169959      51.253832      1889.0462     -9.9177954e-11  1.6190255e-10  247648.8     
      2450   0             -73789.388      134.21198      28.736379     -56.433868      1890.3445     -1.1372578e-10  1.7449598e-10  247651.71    
      2455   0             -73789.414      27.138833     -135.02989     -127.51788      1890.6547     -1.0436402e-10  1.7264534e-10  247668.79    
      2460   0             -73789.433     -195.41309     -199.6915      -201.78905      1889.5941     -1.0913632e-10  1.7534431e-10  247687.12    
      2465   0             -73789.501     -26.460295     -28.38061      -31.236181      1896.8203     -8.7566062e-11  1.5582622e-10  247662.2     
      2470   0             -73789.555      103.50443     -5.82692        190.80193      1904.0726     -4.9578628e-11  1.6094091e-10  247643.09    
      2475   0             -73789.581      177.82686     -157.44764      221.91841      1907.7151     -7.814836e-11   1.7376518e-10  247645.03    
[...]
     49995   0             -73941.376      0.64429        0.084700506    0.10624758     12644.831     -1.7503501e-08  6.9925115e-09  247437.34    
     50000   0             -73941.376      0.15504062    -0.5967395     -0.41891713     12644.794     -1.7426017e-08  7.122206e-09   247437.43    
     50005   0             -73941.376      0.79969521    -0.06267834     0.25134283     12644.825     -1.7306264e-08  7.2508477e-09  247437.34    
     50010   0             -73941.376      0.097098495   -0.8831605     -0.21456669     12644.782     -1.7228089e-08  7.3720302e-09  247437.44    
     50015   0             -73941.376      0.75849368    -0.14721746     0.56221807     12644.824     -1.7103184e-08  7.5022827e-09  247437.33    
     50020   0             -73941.376     -0.011611255   -0.96172499    -0.099490988    12644.779     -1.6936718e-08  7.6368071e-09  247437.45    
     50025   0             -73941.376      0.67468156    -0.15239892     0.52480923     12644.822     -1.687512e-08   7.7372463e-09  247437.35    
     50030   0             -73941.376      0.063708034   -0.74240894    -0.15362933     12644.788     -1.6748085e-08  7.7912568e-09  247437.44    
     50035   0             -73941.376      0.60485491    -0.04697954     0.25030196     12644.824     -1.6628791e-08  7.9508618e-09  247437.36    
     50040   0             -73941.376      0.12889396    -0.45889451    -0.31750066     12644.799     -1.6514272e-08  8.0042289e-09  247437.44    
     50045   0             -73941.376      0.57394233     0.11745062     0.015621009    12644.829     -1.6367556e-08  8.0594409e-09  247437.37    
     50050   0             -73941.376      0.12502455    -0.32545748    -0.51717852     12644.803     -1.6238222e-08  8.1653954e-09  247437.44    
     50055   0             -73941.376      0.70549622     0.31208512    -0.078851282    12644.836     -1.6067123e-08  8.231742e-09   247437.36    
     50060   0             -73941.376      0.14649896    -0.40245113    -0.78377418     12644.796     -1.5870708e-08  8.3031893e-09  247437.46    
     50065   0             -73941.376      0.99513473     0.29299399    -0.070539517    12644.835     -1.563e-08      8.3610255e-09  247437.35    
     50070   0             -73941.376      0.23200962    -0.74573519    -0.79743678     12644.78      -1.5379662e-08  8.4354624e-09  247437.48    
     50075   0             -73941.376      1.1727257      0.11561508     0.17549476     12644.829     -1.5126441e-08  8.4813375e-09  247437.33    
     50080   0             -73941.376      0.27737524    -0.86770532    -0.56651334     12644.777     -1.4945575e-08  8.5733953e-09  247437.46    
     50085   0             -73941.376      0.98328585    -0.044537888    0.24564496     12644.823     -1.4673444e-08  8.6181655e-09  247437.34    
     50090   0             -73941.376      0.18496757    -0.71996648    -0.43974838     12644.785     -1.4434195e-08  8.6168274e-09  247437.45    
     50095   0             -73941.376      0.74204627     0.080043122    0.072210342    12644.827     -1.4170895e-08  8.6287469e-09  247437.36    
     50100   0             -73941.376      0.17968146    -0.36737576    -0.4822355      12644.801     -1.394131e-08   8.6069363e-09  247437.44    
     50105   0             -73941.376      0.59271934     0.33637329    -0.072536978    12644.837     -1.3709249e-08  8.6921462e-09  247437.36    
     50110   0             -73941.376      0.0052306417  -0.095755982   -0.69563582     12644.811     -1.3447136e-08  8.6605817e-09  247437.44    
     50115   0             -73941.376      0.54529914     0.61523915    -0.22203135     12644.849     -1.3176658e-08  8.7261006e-09  247437.35    
     50120   0             -73941.376     -0.24389876    -0.060668132   -1.0235471      12644.81      -1.2869778e-08  8.711604e-09   247437.46    
     50125   0             -73941.376      0.60420815     0.97284787    -0.33968002     12644.865     -1.2493852e-08  8.7033733e-09  247437.33    
     50130   0             -73941.376     -0.03948727    -0.027097882   -1.2634919      12644.81      -1.2115658e-08  8.7239345e-09  247437.45    
     50135   0             -73941.376      1.0650446      0.89042053    -0.28431386     12644.862     -1.1729381e-08  8.6981295e-09  247437.29    
     50140   0             -73941.376      0.060126147   -0.47145153    -1.3046866      12644.79      -1.1226089e-08  8.6677582e-09  247437.46    
     50145   0             -73941.376      1.0977389      0.51954102    -0.20011735     12644.847     -1.0829184e-08  8.6775638e-09  247437.29    
     50150   0             -73941.376      0.24600236    -0.51894339    -0.88666538     12644.793     -1.033183e-08   8.6488503e-09  247437.42    
     50155   0             -73941.376      0.85734632     0.32485913    -0.061419553    12644.841     -9.9351063e-09  8.5859153e-09  247437.3     
     50160   0             -73941.376      0.093989506   -0.3067777     -0.70064239     12644.806     -9.5566849e-09  8.5276195e-09  247437.4     
     50165   0             -73941.376      0.54853404     0.39803726    -0.17435264     12644.844     -9.1916132e-09  8.4967051e-09  247437.3     
     50170   0             -73941.376     -0.13007005    -0.095115461   -0.72108266     12644.817     -8.7649761e-09  8.4311406e-09  247437.39    
     50175   0             -73941.376      0.23871801     0.73177255    -0.17135937     12644.861     -8.3319041e-09  8.3206321e-09  247437.29    
     50180   0             -73941.376     -0.41109256     0.18079671    -0.80445081     12644.83      -7.9878978e-09  8.2627508e-09  247437.38    
     50185   0             -73941.376      0.15102325     1.083365       0.0021150439   12644.881     -7.5070238e-09  8.1836668e-09  247437.26    
     50190   0             -73941.376     -0.63627363     0.31437835    -0.88601092     12644.838     -7.0094415e-09  8.1029185e-09  247437.38    
     50195   0             -73941.376      0.23046605     1.1112763     -0.21326338     12644.882     -6.4875279e-09  8.0304137e-09  247437.25    
     50200   0             -73941.376     -0.42532968     0.088939775   -1.1495229      12644.826     -5.9432935e-09  7.9824691e-09  247437.37    
     50205   0             -73941.376      0.55078651     0.90185282    -0.16638426     12644.874     -5.3416476e-09  7.8394344e-09  247437.22    
     50210   0             -73941.376     -0.09556484    -0.069771648   -0.9513101      12644.823     -4.769487e-09   7.7614468e-09  247437.34    
     50215   0             -73941.376      0.55851883     0.54064114    -0.22316384     12644.859     -4.243063e-09   7.6858128e-09  247437.23    
     50220   0             -73941.376     -0.079303699   -0.15240382    -0.74564428     12644.823     -3.8027169e-09  7.5424945e-09  247437.31    
     50225   0             -73941.376      0.26903237     0.56649584    -0.098451927    12644.863     -3.3182056e-09  7.4867814e-09  247437.22    
     50230   0             -73941.376     -0.24714739     0.12416872    -0.55346257     12644.839     -2.871557e-09   7.3733691e-09  247437.29    
     50235   0             -73941.376      0.074839484    0.71803578     0.063373297    12644.873     -2.3628909e-09  7.2743619e-09  247437.2     
     50240   0             -73941.376     -0.61871988     0.21628847    -0.39249938     12644.846     -1.9097552e-09  7.2443163e-09  247437.28    
     50245   0             -73941.376     -0.17517312     0.81481319     0.21972628     12644.88      -1.4443826e-09  7.1661509e-09  247437.19    
     50250   0             -73941.376     -0.90459643    -0.0087207172  -0.28748468     12644.838     -9.7436205e-10  7.0754199e-09  247437.29    
     50255   0             -73941.376     -0.23541216     0.62233264     0.3882043      12644.874     -3.9787925e-10  6.9725025e-09  247437.18    
     50260   0             -73941.376     -0.66548243     0.142097      -0.2741851      12644.846      1.2702871e-10  6.8900997e-09  247437.25    
     50265   0             -73941.376      0.028645455    0.65524877     0.20980015     12644.875      7.0710067e-10  6.7397014e-09  247437.16    
     50270   0             -73941.376     -0.46194245     0.0081480961  -0.31730104     12644.84       1.3041032e-09  6.6786463e-09  247437.24    
     50275   0             -73941.376     -0.04360751     0.42527303     0.089735396    12644.863      1.859239e-09   6.5754057e-09  247437.17    
     50280   0             -73941.376     -0.32053738     0.09972785    -0.2700405      12644.845      2.3947285e-09  6.432641e-09   247437.21    
     50285   0             -73941.376      0.025496329    0.46008239     0.17545798     12644.866      3.0049365e-09  6.3333109e-09  247437.15    
     50290   0             -73941.376     -0.48523143     0.012020011   -0.12446976     12644.843      3.4583929e-09  6.2590061e-09  247437.21    
     50295   0             -73941.376     -0.19229511     0.41952693     0.31581666     12644.866      3.8925276e-09  6.2101009e-09  247437.14    
     50300   0             -73941.376     -0.74270947    -0.30403304    -0.0043500651   12644.829      4.3637427e-09  6.0632407e-09  247437.22    
     50305   0             -73941.376     -0.11786671     0.1130693      0.68295863     12644.855      4.8068037e-09  5.8991776e-09  247437.13    
     50310   0             -73941.376     -0.58142724    -0.4688291      0.14741095     12644.823      5.3238888e-09  5.8472324e-09  247437.2     
     50315   0             -73941.376      0.17583117     0.015497558    0.57865711     12644.849      5.8100139e-09  5.7546659e-09  247437.12    
     50320   0             -73941.376     -0.21431827    -0.41922046     0.14897611     12644.825      6.2853235e-09  5.6363773e-09  247437.18    
     50325   0             -73941.376      0.28501811     0.05131961     0.43966137     12644.849      6.7616487e-09  5.5319861e-09  247437.11    
     50330   0             -73941.376     -0.069264928   -0.48939626    -0.047199134    12644.819      7.2830122e-09  5.3883929e-09  247437.18    
     50335   0             -73941.376      0.31826632    -0.10397755     0.34859933     12644.84       7.8480874e-09  5.2088241e-09  247437.11    
     50340   0             -73941.376     -0.17035907    -0.54198542     0.05027905     12644.817      8.3666443e-09  5.0547872e-09  247437.17    
     50345   0             -73941.376      0.37186325     0.013631919    0.61293767     12644.847      8.9826058e-09  4.8921498e-09  247437.09    
     50350   0             -73941.376     -0.33603385    -0.73286809     0.10091875     12644.808      9.5136293e-09  4.7057225e-09  247437.19    
     50355   0             -73941.376      0.24162665    -0.10482593     0.79957886     12644.843      1.0035919e-08  4.5242678e-09  247437.09    
     50360   0             -73941.376     -0.51789844    -0.76629721     0.23098039     12644.807      1.0578352e-08  4.3748773e-09  247437.19    
     50365   0             -73941.376      0.37984303    -0.0046369556   0.92735121     12644.849      1.1121945e-08  4.2064432e-09  247437.06    
     50370   0             -73941.376     -0.24767839    -0.8081974      0.21601013     12644.804      1.1546044e-08  4.0534179e-09  247437.17    
     50375   0             -73941.376      0.44046717    -0.06760172     0.64373597     12644.842      1.1985657e-08  3.8847072e-09  247437.08    
     50380   0             -73941.376     -0.0014312338  -0.62084215    -0.10420322     12644.809      1.2388271e-08  3.6816714e-09  247437.17    
     50385   0             -73941.376      0.48283722    -0.058230791    0.25514998     12644.838      1.2758687e-08  3.5272228e-09  247437.1     
     50390   0             -73941.376      0.03053094    -0.51605643    -0.28073231     12644.811      1.3170043e-08  3.3832619e-09  247437.17    
     50395   0             -73941.376      0.63102837     0.034243776    0.12405093     12644.841      1.3637261e-08  3.2082936e-09  247437.09    
     50400   0             -73941.376      0.16222653    -0.59478967    -0.30658522     12644.807      1.4059336e-08  3.0391663e-09  247437.17    
     50405   0             -73941.376      0.72918679    -0.082320157    0.35317074     12644.837      1.4568745e-08  2.7783466e-09  247437.08    
     50410   0             -73941.376     -0.049338538   -0.96534369    -0.16607658     12644.792      1.5057115e-08  2.5690539e-09  247437.19    
     50415   0             -73941.376      0.72778773    -0.15584176     0.74005085     12644.838      1.5470415e-08  2.3887948e-09  247437.07    
     50420   0             -73941.376     -0.16823508    -1.0446959      0.14387181     12644.791      1.5894742e-08  2.1804224e-09  247437.19    
     50425   0             -73941.376      0.58618287    -0.13219128     0.85597872     12644.841      1.6271649e-08  1.9768369e-09  247437.07    
     50430   0             -73941.376     -0.091787564   -0.93758235    -0.036739741    12644.795      1.6641685e-08  1.8020046e-09  247437.19    
     50435   0             -73941.376      0.57461248    -0.15338249     0.45852976     12644.836      1.6876518e-08  1.6696395e-09  247437.09    
     50440   0             -73941.376      0.038297382   -0.6275044     -0.20141211     12644.808      1.7244256e-08  1.5219985e-09  247437.18    
     50445   0             -73941.376      0.57160808     0.022918204    0.11748061     12644.841      1.7442832e-08  1.3416466e-09  247437.11    
     50450   0             -73941.376      0.147346      -0.40207122    -0.37048146     12644.817      1.7725318e-08  1.1849422e-09  247437.18    
     50455   0             -73941.376      0.68178499     0.20743624     0.034557053    12644.849      1.7989181e-08  1.019911e-09   247437.1     
     50460   0             -73941.376      0.1733612     -0.45659409    -0.63065557     12644.812      1.8223632e-08  8.2833227e-10  247437.2     
     50465   0             -73941.376      0.91121869     0.11358887     0.027764143    12644.845      1.8499091e-08  6.7070833e-10  247437.1     
     50470   0             -73941.376      0.18454252    -0.8416637     -0.53513362     12644.796      1.8710628e-08  5.3512175e-10  247437.21    
     50475   0             -73941.376      1.0419553     -0.034169548    0.42926103     12644.844      1.8943532e-08  3.2058554e-10  247437.08    
     50480   0             -73941.376      0.14472248    -1.0515802     -0.25995878     12644.791      1.9160082e-08  1.4428182e-10  247437.21    
     50485   0             -73941.376      0.82967048    -0.22232087     0.54713818     12644.837      1.9369659e-08  7.8950164e-11  247437.1     
     50490   0             -73941.376      0.025744811   -0.9466058     -0.18165007     12644.798      1.9534129e-08 -1.5026289e-10  247437.21    
     50495   0             -73941.376      0.71774224    -0.075031259    0.33710378     12644.843      1.9639818e-08 -2.8042029e-10  247437.11    
     50500   0             -73941.376      0.1628418     -0.54423891    -0.26593471     12644.816      1.9729022e-08 -4.067128e-10   247437.19    
     50505   0             -73941.376      0.59015756     0.090927027    0.086287286    12644.849      1.9902202e-08 -5.5812606e-10  247437.12    
     50510   0             -73941.376      0.12815032    -0.29541999    -0.45834753     12644.827      1.9972267e-08 -6.9973924e-10  247437.2     
     50515   0             -73941.376      0.58863901     0.27063232    -0.091511226    12644.857      2.0019937e-08 -8.5303892e-10  247437.13    
     50520   0             -73941.376      0.04357838    -0.27910841    -0.7395128      12644.825      2.0114338e-08 -9.5600503e-10  247437.22    
     50525   0             -73941.376      0.81567887     0.45566876    -0.18331057     12644.865      2.0172455e-08 -1.093156e-09   247437.12    
     50530   0             -73941.376      0.19321424    -0.48661879    -0.90519142     12644.815      2.0248221e-08 -1.1979162e-09  247437.23    
     50535   0             -73941.376      1.142776       0.28336535     0.012496132    12644.86       2.025587e-08  -1.3186425e-09  247437.1     
     50540   0             -73941.376      0.22983009    -0.84431468    -0.77794957     12644.801      2.0319073e-08 -1.4532618e-09  247437.25    
     50545   0             -73941.376      1.1134427      0.038502974    0.18081986     12644.851      2.0329896e-08 -1.6156258e-09  247437.11    
     50550   0             -73941.376      0.26967925    -0.76565774    -0.45262804     12644.809      2.0395402e-08 -1.7335901e-09  247437.23    
     50555   0             -73941.376      0.82591309     0.024011538    0.19141034     12644.852      2.0432447e-08 -1.8877644e-09  247437.13    
     50560   0             -73941.376      0.16415402    -0.48597031    -0.44881265     12644.822      2.039485e-08  -1.9743512e-09  247437.22    
     50565   0             -73941.376      0.59312895     0.15369175    -0.039805124    12644.856      2.0351103e-08 -2.0188877e-09  247437.15    
     50570   0             -73941.376      0.076134145   -0.24515771    -0.54606428     12644.833      2.032892e-08  -2.141085e-09   247437.23    
     50575   0             -73941.376      0.50996485     0.43326362    -0.14993453     12644.868      2.0281998e-08 -2.3317898e-09  247437.15    
     50580   0             -73941.376     -0.068556334   -0.074009694   -0.77368635     12644.839      2.0154364e-08 -2.3871369e-09  247437.24    
     50585   0             -73941.376      0.58636907     0.7252148     -0.24026366     12644.881      2.0167438e-08 -2.505333e-09   247437.14    
     50590   0             -73941.376     -0.08772203    -0.10102817    -1.0791815      12644.835      2.0048543e-08 -2.6498436e-09  247437.26    
     50595   0             -73941.376      0.91338911     0.77805488    -0.30169557     12644.883      1.9973376e-08 -2.727829e-09   247437.13    
     50600   0             -73941.376      0.15148374    -0.39887357    -1.1601676      12644.821      1.9844174e-08 -2.8906505e-09  247437.28    
     50605   0             -73941.376      1.1329081      0.46032895    -0.13562912     12644.871      1.9730269e-08 -3.0215916e-09  247437.13    
     50610   0             -73941.376      0.26257981    -3.1000296      0.84827917     12644.695      1.7126603e-08 -2.8456539e-09  247437.32    
     50613   0             -73941.376     -0.24655857    -0.32474489     0.0049064134   12644.814      1.7058515e-08 -2.8400416e-09  247437.26    
Loop time of 113.745 on 6 procs for 50413 steps with 8400 atoms

98.9% CPU use with 6 MPI tasks x no OpenMP threads

Minimization stats:
  Stopping criterion = energy tolerance
  Energy initial, next-to-last, final = 
      -73734.929893129  -73941.3758572456  -73941.3758572517
  Force two-norm initial, final = 64.296251 0.07140432
  Force max component initial, final = 38.539396 0.050183525
  Final line search alpha, max atom move = 0.0058311535 0.00029262784
  Iterations, force evaluations = 50413 94877

MPI task timing breakdown:
Section |  min time  |  avg time  |  max time  |%varavg| %total
---------------------------------------------------------------
Pair    | 47.489     | 65.479     | 97.906     | 277.9 | 57.57
Neigh   | 0          | 0          | 0          |   0.0 |  0.00
Comm    | 6.0124     | 37.924     | 55.69      | 359.3 | 33.34
Output  | 0.18666    | 0.19905    | 0.25445    |   5.6 |  0.18
Modify  | 0          | 0          | 0          |   0.0 |  0.00
Other   |            | 10.14      |            |       |  8.92

Nlocal:           1400 ave        2606 max         797 min
Histogram: 4 0 0 0 0 0 0 0 0 2
Nghost:           2805 ave        4681 max        1867 min
Histogram: 4 0 0 0 0 0 0 0 0 2
Neighs:        55986.7 ave      109604 max       24759 min
Histogram: 2 2 0 0 0 0 0 0 0 2

Total # of neighbors = 335920
Ave neighs/atom = 39.990476
Neighbor list builds = 0
Dangerous builds = 0
write_data Lammps_Dump/perfect.data
System init for write_data ...
Total wall time: 0:01:54
