LAMMPS (2 Aug 2023)
Running on 8 partitions of processors
    Step     MaxReplicaForce  MaxAtomForce      GradV0         GradV1         GradVc          EBF            EBR            RDT            RD1            PE1            RD2            PE2            RD3            PE3            RD4            PE4            RD5            PE5            RD6            PE6            RD7            PE7            RD8            PE8       
         0   3.278433         2.5667447      0.00013603716  0.044822951    3.3094356      0.42315315     0.42311595     1.138004       0              -17893.183     0.14285714     -17893.08      0.28571429     -17892.893     0.42857143     -17892.76      0.57142857     -17892.76      0.71428571     -17892.893     0.85714286     -17893.079     1              -17893.183     
        29   0.10676193       0.003025496    3.2784395e-05  0.00018592622  0.34412264     0.18678015     0.18678014     1.2745693      0              -17893.183     0.15237945     -17893.168     0.30203641     -17893.087     0.43614322     -17892.997     0.56385421     -17892.997     0.69796023     -17893.087     0.84761593     -17893.168     1              -17893.183     
Climbing replica = 5
    Step     MaxReplicaForce  MaxAtomForce      GradV0         GradV1         GradVc          EBF            EBR            RDT            RD1            PE1            RD2            PE2            RD3            PE3            RD4            PE4            RD5            PE5            RD6            PE6            RD7            PE7            RD8            PE8       
        29   0.34412264       0.07913507     3.2784395e-05  0.00018592622  0.34412264     0.18678015     0.18678014     1.2745693      0              -17893.183     0.15237945     -17893.168     0.30203641     -17893.087     0.43614322     -17892.997     0.56385421     -17892.997     0.69796023     -17893.087     0.84761593     -17893.168     1              -17893.183     
        35   0.30788036       0.06450506     3.1941536e-05  0.00017080266  0.30788036     0.18946764     0.18946763     1.2769493      0              -17893.183     0.152689       -17893.168     0.30244986     -17893.087     0.43629674     -17892.997     0.55616809     -17892.994     0.69755703     -17893.087     0.8473063      -17893.168     1              -17893.183     
