LAMMPS (2 Aug 2023)
Processor partition = 6

units metal

atom_style atomic

atom_modify map array sort 0 0.0

read_data ../Neb_Dump/Bulk/Tet_Tet/tet_0.data
Reading data file ...
  orthogonal box = (-1.4828723e-06 -1.4828723e-06 -1.4828723e-06) to (31.442211 31.442211 31.442211)
  1 by 1 by 1 MPI processor grid
  reading atoms ...
  2001 atoms
  reading velocities ...
  2001 velocities
  read_data CPU = 0.012 seconds

mass 1 183.84

mass 2 1.00784

mass 3 4.002602

pair_style eam/alloy

pair_coeff * * Potentials/Selected_Potentials/Potential_3/optim102.eam.alloy W H He

thermo 10

run 0
WARNING: No fixes with time integration, atoms won't move (src/verlet.cpp:60)
Neighbor list info ...
  update: every = 1 steps, delay = 0 steps, check = yes
  max neighbors/atom: 2000, page size: 100000
  master list distance cutoff = 6.8513889
  ghost atom cutoff = 6.8513889
  binsize = 3.4256945, bins = 10 10 10
  1 neighbor lists, perpetual/occasional/extra = 1 0 0
  (1) pair eam/alloy, perpetual
      attributes: half, newton on
      pair build: half/bin/atomonly/newton
      stencil: half/bin/3d
      bin: standard
Per MPI rank memory allocation (min/avg/max) = 3.385 | 3.385 | 3.385 Mbytes
   Step          Temp          E_pair         E_mol          TotEng         Press     
         0   0             -17893.183      0             -17893.183      540.96771    
Loop time of 5e-07 on 1 procs for 0 steps with 2001 atoms

0.0% CPU use with 1 MPI tasks x no OpenMP threads

MPI task timing breakdown:
Section |  min time  |  avg time  |  max time  |%varavg| %total
---------------------------------------------------------------
Pair    | 0          | 0          | 0          |   0.0 |  0.00
Neigh   | 0          | 0          | 0          |   0.0 |  0.00
Comm    | 0          | 0          | 0          |   0.0 |  0.00
Output  | 0          | 0          | 0          |   0.0 |  0.00
Modify  | 0          | 0          | 0          |   0.0 |  0.00
Other   |            | 5e-07      |            |       |100.00

Nlocal:           2001 ave        2001 max        2001 min
Histogram: 1 0 0 0 0 0 0 0 0 0
Nghost:           4119 ave        4119 max        4119 min
Histogram: 1 0 0 0 0 0 0 0 0 0
Neighs:          65460 ave       65460 max       65460 min
Histogram: 1 0 0 0 0 0 0 0 0 0

Total # of neighbors = 65460
Ave neighs/atom = 32.713643
Neighbor list builds = 0
Dangerous builds = 0

fix 1 all neb 1e-4

timestep 1e-3

min_style quickmin

thermo 100

variable i equal part

neb 10e-8 10e-10 5000 5000 100 final ../Neb_Dump/Bulk/Tet_Tet/tet_1.atom
Per MPI rank memory allocation (min/avg/max) = 3.385 | 3.385 | 3.385 Mbytes
   Step          Temp          E_pair         E_mol          TotEng         Press     
         0   0             -17893.079      0             -17893.079      564.34828    
        29   1.471858      -17893.168      0             -17892.787      533.84597    
Loop time of 0.078549 on 1 procs for 29 steps with 2001 atoms

96.8% CPU use with 1 MPI tasks x no OpenMP threads

Minimization stats:
  Stopping criterion = energy tolerance
  Energy initial, next-to-last, final = 
      -17893.079495683  -17893.1671280379  -17893.1679111195
  Force two-norm initial, final = 1.7147417 0.07859378
  Force max component initial, final = 0.91740411 0.048099942
  Final line search alpha, max atom move = 0 0
  Iterations, force evaluations = 29 29

MPI task timing breakdown:
Section |  min time  |  avg time  |  max time  |%varavg| %total
---------------------------------------------------------------
Pair    | 0.03719    | 0.03719    | 0.03719    |   0.0 | 47.35
Neigh   | 0          | 0          | 0          |   0.0 |  0.00
Comm    | 0.00050512 | 0.00050512 | 0.00050512 |   0.0 |  0.64
Output  | 0          | 0          | 0          |   0.0 |  0.00
Modify  | 0.031226   | 0.031226   | 0.031226   |   0.0 | 39.75
Other   |            | 0.009629   |            |       | 12.26

Nlocal:           2001 ave        2001 max        2001 min
Histogram: 1 0 0 0 0 0 0 0 0 0
Nghost:           4119 ave        4119 max        4119 min
Histogram: 1 0 0 0 0 0 0 0 0 0
Neighs:          65443 ave       65443 max       65443 min
Histogram: 1 0 0 0 0 0 0 0 0 0

Total # of neighbors = 65443
Ave neighs/atom = 32.705147
Neighbor list builds = 0
Dangerous builds = 0
Per MPI rank memory allocation (min/avg/max) = 3.385 | 3.385 | 3.385 Mbytes
   Step          Temp          E_pair         E_mol          TotEng         Press     
        29   0             -17893.168      0             -17893.168      520.77101    
        35   0.010392884   -17893.168      0             -17893.165      520.55751    
Loop time of 0.0172647 on 1 procs for 6 steps with 2001 atoms

99.5% CPU use with 1 MPI tasks x no OpenMP threads

Minimization stats:
  Stopping criterion = energy tolerance
  Energy initial, next-to-last, final = 
     -17893.1679111195  -17893.1680298911  -17893.1680865313
  Force two-norm initial, final = 0.07859378 0.071784858
  Force max component initial, final = 0.048099942 0.043693689
  Final line search alpha, max atom move = 0 0
  Iterations, force evaluations = 6 6

MPI task timing breakdown:
Section |  min time  |  avg time  |  max time  |%varavg| %total
---------------------------------------------------------------
Pair    | 0.009564   | 0.009564   | 0.009564   |   0.0 | 55.40
Neigh   | 0          | 0          | 0          |   0.0 |  0.00
Comm    | 0.0001255  | 0.0001255  | 0.0001255  |   0.0 |  0.73
Output  | 0          | 0          | 0          |   0.0 |  0.00
Modify  | 0.006451   | 0.006451   | 0.006451   |   0.0 | 37.37
Other   |            | 0.001124   |            |       |  6.51

Nlocal:           2001 ave        2001 max        2001 min
Histogram: 1 0 0 0 0 0 0 0 0 0
Nghost:           4119 ave        4119 max        4119 min
Histogram: 1 0 0 0 0 0 0 0 0 0
Neighs:          65405 ave       65405 max       65405 min
Histogram: 1 0 0 0 0 0 0 0 0 0

Total # of neighbors = 65405
Ave neighs/atom = 32.686157
Neighbor list builds = 0
Dangerous builds = 0

write_dump all custom ../Neb_Dump/Bulk/Tet_Tet/Neb_Images/neb.$i.atom id type x y z 
write_dump all custom ../Neb_Dump/Bulk/Tet_Tet/Neb_Images/neb.6.atom id type x y z 
Total wall time: 0:00:00
