LAMMPS (2 Aug 2023)
Processor partition = 3

units metal

atom_style atomic

atom_modify map array sort 0 0.0

read_data ../Neb_Dump/Bulk/Tet_Tet/tet_0.data
Reading data file ...
  orthogonal box = (-1.1862976e-06 -1.1862976e-06 -1.1862976e-06) to (25.153769 25.153769 25.153769)
  1 by 1 by 1 MPI processor grid
  reading atoms ...
  1025 atoms
  reading velocities ...
  1025 velocities
  read_data CPU = 0.007 seconds

mass 1 183.84

mass 2 1.00784

mass 3 4.002602

pair_style eam/alloy

pair_coeff * * Potentials/Selected_Potentials/Potential_3/optim102.eam.alloy W H He

thermo 10

run 0
WARNING: No fixes with time integration, atoms won't move (src/verlet.cpp:60)
Neighbor list info ...
  update: every = 1 steps, delay = 0 steps, check = yes
  max neighbors/atom: 2000, page size: 100000
  master list distance cutoff = 6.8513889
  ghost atom cutoff = 6.8513889
  binsize = 3.4256945, bins = 8 8 8
  1 neighbor lists, perpetual/occasional/extra = 1 0 0
  (1) pair eam/alloy, perpetual
      attributes: half, newton on
      pair build: half/bin/atomonly/newton
      stencil: half/bin/3d
      bin: standard
Per MPI rank memory allocation (min/avg/max) = 3.324 | 3.324 | 3.324 Mbytes
   Step          Temp          E_pair         E_mol          TotEng         Press     
         0   0             -9158.337       0             -9158.337       1054.2381    
Loop time of 6.25e-07 on 1 procs for 0 steps with 1025 atoms

160.0% CPU use with 1 MPI tasks x no OpenMP threads

MPI task timing breakdown:
Section |  min time  |  avg time  |  max time  |%varavg| %total
---------------------------------------------------------------
Pair    | 0          | 0          | 0          |   0.0 |  0.00
Neigh   | 0          | 0          | 0          |   0.0 |  0.00
Comm    | 0          | 0          | 0          |   0.0 |  0.00
Output  | 0          | 0          | 0          |   0.0 |  0.00
Modify  | 0          | 0          | 0          |   0.0 |  0.00
Other   |            | 6.25e-07   |            |       |100.00

Nlocal:           1025 ave        1025 max        1025 min
Histogram: 1 0 0 0 0 0 0 0 0 0
Nghost:           2901 ave        2901 max        2901 min
Histogram: 1 0 0 0 0 0 0 0 0 0
Neighs:          34292 ave       34292 max       34292 min
Histogram: 1 0 0 0 0 0 0 0 0 0

Total # of neighbors = 34292
Ave neighs/atom = 33.45561
Neighbor list builds = 0
Dangerous builds = 0

fix 1 all neb 1e-4

timestep 1e-3

min_style quickmin

thermo 100

variable i equal part

neb 10e-8 10e-10 5000 5000 100 final ../Neb_Dump/Bulk/Tet_Tet/tet_1.atom
Per MPI rank memory allocation (min/avg/max) = 3.324 | 3.324 | 3.324 Mbytes
   Step          Temp          E_pair         E_mol          TotEng         Press     
         0   0             -9157.9506      0             -9157.9506      1257.1037    
        31   0.6482687     -9158.1785      0             -9158.0927      1069.3787    
Loop time of 0.0470685 on 1 procs for 31 steps with 1025 atoms

97.2% CPU use with 1 MPI tasks x no OpenMP threads

Minimization stats:
  Stopping criterion = energy tolerance
  Energy initial, next-to-last, final = 
     -9157.95061195276  -9158.17807758723  -9158.17845779441
  Force two-norm initial, final = 3.1343023 0.070289024
  Force max component initial, final = 1.5087365 0.036965483
  Final line search alpha, max atom move = 0 0
  Iterations, force evaluations = 31 31

MPI task timing breakdown:
Section |  min time  |  avg time  |  max time  |%varavg| %total
---------------------------------------------------------------
Pair    | 0.021833   | 0.021833   | 0.021833   |   0.0 | 46.39
Neigh   | 0          | 0          | 0          |   0.0 |  0.00
Comm    | 0.00033937 | 0.00033937 | 0.00033937 |   0.0 |  0.72
Output  | 0          | 0          | 0          |   0.0 |  0.00
Modify  | 0.021687   | 0.021687   | 0.021687   |   0.0 | 46.07
Other   |            | 0.003209   |            |       |  6.82

Nlocal:           1025 ave        1025 max        1025 min
Histogram: 1 0 0 0 0 0 0 0 0 0
Nghost:           2901 ave        2901 max        2901 min
Histogram: 1 0 0 0 0 0 0 0 0 0
Neighs:          34277 ave       34277 max       34277 min
Histogram: 1 0 0 0 0 0 0 0 0 0

Total # of neighbors = 34277
Ave neighs/atom = 33.440976
Neighbor list builds = 0
Dangerous builds = 0
Per MPI rank memory allocation (min/avg/max) = 3.324 | 3.324 | 3.324 Mbytes
   Step          Temp          E_pair         E_mol          TotEng         Press     
        31   0             -9158.1785      0             -9158.1785      1063.6199    
        37   0.0071442557  -9158.1786      0             -9158.1776      1063.122     
Loop time of 0.0100166 on 1 procs for 6 steps with 1025 atoms

95.7% CPU use with 1 MPI tasks x no OpenMP threads

Minimization stats:
  Stopping criterion = energy tolerance
  Energy initial, next-to-last, final = 
     -9158.17845779441    -9158.178519909  -9158.17855001045
  Force two-norm initial, final = 0.070289024 0.066433291
  Force max component initial, final = 0.036965483 0.034877554
  Final line search alpha, max atom move = 0 0
  Iterations, force evaluations = 6 6

MPI task timing breakdown:
Section |  min time  |  avg time  |  max time  |%varavg| %total
---------------------------------------------------------------
Pair    | 0.0066633  | 0.0066633  | 0.0066633  |   0.0 | 66.52
Neigh   | 0          | 0          | 0          |   0.0 |  0.00
Comm    | 0.00010908 | 0.00010908 | 0.00010908 |   0.0 |  1.09
Output  | 0          | 0          | 0          |   0.0 |  0.00
Modify  | 0.0028335  | 0.0028335  | 0.0028335  |   0.0 | 28.29
Other   |            | 0.0004108  |            |       |  4.10

Nlocal:           1025 ave        1025 max        1025 min
Histogram: 1 0 0 0 0 0 0 0 0 0
Nghost:           2901 ave        2901 max        2901 min
Histogram: 1 0 0 0 0 0 0 0 0 0
Neighs:          34380 ave       34380 max       34380 min
Histogram: 1 0 0 0 0 0 0 0 0 0

Total # of neighbors = 34380
Ave neighs/atom = 33.541463
Neighbor list builds = 0
Dangerous builds = 0

write_dump all custom ../Neb_Dump/Bulk/Tet_Tet/Neb_Images/neb.$i.atom id type x y z 
write_dump all custom ../Neb_Dump/Bulk/Tet_Tet/Neb_Images/neb.3.atom id type x y z 
Total wall time: 0:00:00
