ITEM: TIMESTEP
1
ITEM: NUMBER OF ATOMS
687
ITEM: BOX BOUNDS pp pp pp
-1.0380103268104445e-06 2.2009548038010326e+01
-1.0380103270892315e-06 2.2009548038010323e+01
-1.0380103266153252e-06 2.2009548038010326e+01
ITEM: ATOMS id type x y z
1 1 0.0890 0.0891 -0.0003 
2 1 1.6605 1.6606 1.5712 
3 1 3.2327 0.0892 -0.0005 
4 1 4.8047 1.6607 1.5711 
5 1 6.3771 0.0894 -0.0005 
6 1 7.9494 1.6609 1.5712 
7 1 9.5217 0.0895 -0.0004 
8 1 11.0940 1.6610 1.5713 
9 1 12.6663 0.0895 -0.0004 
10 1 14.2386 1.6609 1.5714 
11 1 15.8108 0.0894 -0.0004 
12 1 17.3831 1.6606 1.5713 
13 1 18.9550 0.0892 -0.0004 
14 1 20.5268 1.6607 1.5714 
15 1 0.0892 3.2329 -0.0005 
16 1 1.6607 4.8048 1.5711 
17 1 3.2326 3.2326 -0.0008 
18 1 4.8039 4.8039 1.5698 
19 1 6.3772 3.2328 -0.0006 
20 1 7.9494 4.8044 1.5707 
21 1 9.5218 3.2329 -0.0005 
22 1 11.0941 4.8044 1.5708 
23 1 12.6663 3.2328 -0.0005 
24 1 14.2389 4.8042 1.5706 
25 1 15.8109 3.2327 -0.0006 
26 1 17.3843 4.8036 1.5701 
27 1 18.9554 3.2325 -0.0006 
28 1 20.5274 4.8047 1.5712 
29 1 0.0896 6.3773 -0.0004 
30 1 1.6611 7.9495 1.5713 
31 1 3.2330 6.3773 -0.0006 
32 1 4.8046 7.9494 1.5707 
33 1 6.3771 6.3770 -0.0012 
34 1 7.9493 7.9492 1.5696 
35 1 9.5219 6.3769 -0.0008 
36 1 11.0943 7.9490 1.5704 
37 1 12.6665 6.3768 -0.0009 
38 1 14.2401 7.9484 1.5686 
39 1 15.8117 6.3764 -0.0014 
40 1 17.3847 7.9487 1.5701 
41 1 18.9558 6.3769 -0.0007 
42 1 20.5278 7.9493 1.5712 
43 1 0.0898 9.5218 -0.0004 
44 1 1.6613 11.0941 1.5714 
45 1 3.2332 9.5218 -0.0005 
46 1 4.8047 11.0941 1.5708 
47 1 6.3772 9.5217 -0.0008 
48 1 7.9492 11.0941 1.5705 
49 1 9.5222 9.5219 -0.0006 
50 1 11.0946 11.0944 1.5711 
51 1 12.6667 9.5217 -0.0012 
52 1 14.2410 11.0941 1.5682 
53 1 15.8123 9.5213 -0.0014 
54 1 17.3850 11.0941 1.5701 
55 1 18.9561 9.5216 -0.0007 
56 1 20.5279 11.0941 1.5712 
57 1 0.0898 12.6663 -0.0004 
58 1 1.6611 14.2386 1.5714 
59 1 3.2331 12.6663 -0.0005 
60 1 4.8044 14.2389 1.5707 
61 1 6.3771 12.6663 -0.0009 
62 1 7.9486 14.2399 1.5687 
63 1 9.5220 12.6665 -0.0012 
64 1 11.0943 14.2408 1.5682 
65 1 12.6669 12.6667 -0.0019 
66 1 14.2409 14.2407 1.5677 
67 1 15.8124 12.6667 -0.0015 
68 1 17.3849 14.2396 1.5701 
69 1 18.9561 12.6665 -0.0007 
70 1 20.5278 14.2388 1.5713 
71 1 0.0896 15.8108 -0.0004 
72 1 1.6606 17.3832 1.5713 
73 1 3.2328 15.8109 -0.0006 
74 1 4.8036 17.3843 1.5701 
75 1 6.3766 15.8115 -0.0013 
76 1 7.9487 17.3846 1.5702 
77 1 9.5215 15.8120 -0.0014 
78 1 11.0941 17.3848 1.5701 
79 1 12.6669 15.8121 -0.0015 
80 1 14.2396 17.3848 1.5701 
81 1 15.8123 15.8121 -0.0015 
82 1 17.3846 17.3845 1.5704 
83 1 18.9560 15.8112 -0.0006 
84 1 20.5275 17.3833 1.5714 
85 1 0.0892 18.9550 -0.0004 
86 1 1.6605 20.5269 1.5714 
87 1 3.2325 18.9554 -0.0006 
88 1 4.8045 20.5274 1.5712 
89 1 6.3768 18.9556 -0.0007 
90 1 7.9492 20.5276 1.5712 
91 1 9.5216 18.9558 -0.0007 
92 1 11.0940 20.5276 1.5712 
93 1 12.6665 18.9559 -0.0007 
94 1 14.2387 20.5276 1.5713 
95 1 15.8113 18.9558 -0.0006 
96 1 17.3832 20.5274 1.5714 
97 1 18.9555 18.9555 -0.0005 
98 1 20.5268 20.5269 1.5717 
99 1 0.0887 0.0889 3.1436 
100 1 1.6600 1.6603 4.7154 
101 1 3.2322 0.0888 3.1432 
102 1 4.8037 1.6595 4.7147 
103 1 6.3768 0.0893 3.1432 
104 1 7.9492 1.6602 4.7153 
105 1 9.5216 0.0895 3.1432 
106 1 11.0940 1.6605 4.7153 
107 1 12.6663 0.0895 3.1434 
108 1 14.2384 1.6603 4.7156 
109 1 15.8108 0.0893 3.1435 
110 1 17.3831 1.6600 4.7155 
111 1 18.9548 0.0888 3.1437 
112 1 20.5265 1.6605 4.7157 
113 1 0.0887 3.2324 3.1432 
114 1 1.6593 4.8040 4.7148 
115 1 3.2314 3.2315 3.1422 
116 1 4.8003 4.8005 4.7114 
117 1 6.3765 3.2316 3.1424 
118 1 7.9483 4.8018 4.7136 
119 1 9.5216 3.2321 3.1428 
120 1 11.0942 4.8028 4.7139 
121 1 12.6664 3.2321 3.1429 
122 1 14.2402 4.8015 4.7136 
123 1 15.8115 3.2315 3.1426 
124 1 17.3855 4.8022 4.7135 
125 1 18.9556 3.2319 3.1429 
126 1 20.5272 4.8043 4.7152 
127 1 0.0893 6.3770 3.1432 
128 1 1.6603 7.9494 4.7153 
129 1 3.2317 6.3766 3.1424 
130 1 4.8019 7.9484 4.7136 
131 1 6.3741 6.3741 3.1389 
132 1 7.9426 7.9425 4.7053 
133 1 9.5218 6.3758 3.1418 
134 1 11.0947 7.9478 4.7125 
135 1 12.6669 6.3757 3.1415 
136 1 14.2490 7.9402 4.7039 
137 1 15.8148 6.3734 3.1391 
138 1 17.3873 7.9476 4.7132 
139 1 18.9567 6.3762 3.1425 
140 1 20.5280 7.9492 4.7153 
141 1 0.0897 9.5218 3.1433 
142 1 1.6607 11.0942 4.7154 
143 1 3.2323 9.5217 3.1429 
144 1 4.8030 11.0943 4.7139 
145 1 6.3760 9.5218 3.1418 
146 1 7.9480 11.0947 4.7126 
147 1 9.5222 9.5221 3.1424 
148 1 11.0969 11.0968 4.7195 
149 1 12.6685 9.5215 3.1388 
150 1 14.2471 11.0947 4.7057 
151 1 15.8147 9.5207 3.1398 
152 1 17.3872 11.0943 4.7131 
153 1 18.9570 9.5215 3.1425 
154 1 20.5282 11.0942 4.7153 
155 1 0.0897 12.6665 3.1434 
156 1 1.6604 14.2387 4.7157 
157 1 3.2323 12.6666 3.1430 
158 1 4.8016 14.2404 4.7136 
159 1 6.3759 12.6669 3.1415 
160 1 7.9402 14.2491 4.7040 
161 1 9.5216 12.6684 3.1388 
162 1 11.0947 14.2471 4.7057 
163 1 12.6691 12.6690 3.1352 
164 1 14.2514 14.2514 4.7026 
165 1 15.8148 12.6680 3.1395 
166 1 17.3877 14.2412 4.7132 
167 1 18.9570 12.6668 3.1426 
168 1 20.5279 14.2389 4.7157 
169 1 0.0893 15.8110 3.1436 
170 1 1.6598 17.3833 4.7155 
171 1 3.2315 15.8116 3.1427 
172 1 4.8020 17.3857 4.7135 
173 1 6.3734 15.8148 3.1391 
174 1 7.9474 17.3873 4.7132 
175 1 9.5207 15.8146 3.1398 
176 1 11.0942 17.3872 4.7130 
177 1 12.6680 15.8147 3.1395 
178 1 14.2411 17.3876 4.7132 
179 1 15.8155 15.8154 3.1393 
180 1 17.3839 17.3840 4.7156 
181 1 18.9568 15.8120 3.1427 
182 1 20.5267 17.3830 4.7160 
183 1 0.0887 18.9550 3.1437 
184 1 1.6602 20.5268 4.7157 
185 1 3.2317 18.9557 3.1429 
186 1 4.8040 20.5274 4.7152 
187 1 6.3761 18.9567 3.1425 
188 1 7.9489 20.5280 4.7153 
189 1 9.5213 18.9568 3.1425 
190 1 11.0940 20.5281 4.7153 
191 1 12.6667 18.9568 3.1426 
192 1 14.2386 20.5279 4.7156 
193 1 15.8119 18.9568 3.1427 
194 1 17.3828 20.5269 4.7160 
195 1 18.9552 18.9553 3.1437 
196 1 20.5264 20.5267 4.7160 
197 1 0.0884 0.0888 6.2880 
198 1 1.6598 1.6602 7.8602 
199 1 3.2318 0.0887 6.2877 
200 1 4.8032 1.6592 7.8599 
201 1 6.3764 0.0886 6.2877 
202 1 7.9487 1.6590 7.8602 
203 1 9.5216 0.0893 6.2879 
204 1 11.0936 1.6610 7.8604 
205 1 12.6659 0.0893 6.2882 
206 1 14.2383 1.6598 7.8604 
207 1 15.8105 0.0886 6.2882 
208 1 17.3830 1.6599 7.8602 
209 1 18.9546 0.0887 6.2881 
210 1 20.5263 1.6604 7.8603 
211 1 0.0883 3.2322 6.2877 
212 1 1.6590 4.8036 7.8599 
213 1 3.2309 3.2312 6.2871 
214 1 4.8004 4.8006 7.8588 
215 1 6.3746 3.2287 6.2861 
216 1 7.9452 4.7957 7.8584 
217 1 9.5218 3.2311 6.2874 
218 1 11.0933 4.8061 7.8606 
219 1 12.6659 3.2315 6.2878 
220 1 14.2405 4.7999 7.8595 
221 1 15.8117 3.2304 6.2872 
222 1 17.3848 4.8025 7.8596 
223 1 18.9553 3.2319 6.2877 
224 1 20.5269 4.8041 7.8601 
225 1 0.0885 6.3767 6.2877 
226 1 1.6590 7.9491 7.8602 
227 1 3.2286 6.3749 6.2861 
228 1 4.7957 7.9454 7.8584 
229 1 6.3638 6.3639 6.2760 
230 1 7.9102 7.9102 7.8270 
231 1 9.5220 6.3711 6.2850 
232 1 11.1013 7.9570 7.8530 
233 1 12.6684 6.3705 6.2842 
234 1 14.2587 7.9290 7.8447 
235 1 15.8184 6.3698 6.2819 
236 1 17.3874 7.9475 7.8600 
237 1 18.9570 6.3759 6.2873 
238 1 20.5274 7.9492 7.8604 
239 1 0.0893 9.5219 6.2880 
240 1 1.6610 11.0940 7.8605 
241 1 3.2312 9.5220 6.2874 
242 1 4.8062 11.0936 7.8606 
243 1 6.3712 9.5221 6.2851 
244 1 7.9570 11.1014 7.8529 
245 1 9.5022 9.5021 6.2799 
246 1 11.1325 11.1326 7.6281 
247 1 12.6989 9.4978 6.2652 
248 1 14.2460 11.1014 7.8440 
249 1 15.8205 9.5199 6.2831 
250 1 17.3843 11.0936 7.8603 
251 1 18.9575 9.5216 6.2873 
252 1 20.5272 11.0940 7.8606 
253 1 0.0893 12.6662 6.2882 
254 1 1.6597 14.2387 7.8605 
255 1 3.2316 12.6661 6.2879 
256 1 4.7998 14.2408 7.8595 
257 1 6.3706 12.6686 6.2842 
258 1 7.9289 14.2589 7.8447 
259 1 9.4977 12.6989 6.2652 
260 1 11.1013 14.2461 7.8440 
261 1 12.7033 12.7034 6.2504 
262 1 14.2400 14.2401 7.8624 
263 1 15.8211 12.6707 6.2822 
264 1 17.3834 14.2387 7.8610 
265 1 18.9571 12.6665 6.2878 
266 1 20.5267 14.2385 7.8606 
267 1 0.0885 15.8108 6.2882 
268 1 1.6596 17.3834 7.8602 
269 1 3.2303 15.8120 6.2873 
270 1 4.8022 17.3852 7.8597 
271 1 6.3696 15.8186 6.2819 
272 1 7.9473 17.3876 7.8599 
273 1 9.5198 15.8206 6.2831 
274 1 11.0933 17.3844 7.8603 
275 1 12.6706 15.8212 6.2822 
276 1 14.2384 17.3835 7.8610 
277 1 15.8125 15.8127 6.2878 
278 1 17.3830 17.3832 7.8605 
279 1 18.9553 15.8110 6.2884 
280 1 20.5263 17.3829 7.8604 
281 1 0.0883 18.9549 6.2881 
282 1 1.6599 20.5267 7.8603 
283 1 3.2315 18.9556 6.2877 
284 1 4.8036 20.5272 7.8601 
285 1 6.3756 18.9572 6.2872 
286 1 7.9488 20.5275 7.8604 
287 1 9.5214 18.9575 6.2873 
288 1 11.0936 20.5272 7.8606 
289 1 12.6663 18.9571 6.2878 
290 1 14.2382 20.5268 7.8606 
291 1 15.8107 18.9554 6.2884 
292 1 17.3826 20.5266 7.8604 
293 1 18.9546 18.9549 6.2883 
294 1 20.5262 20.5266 7.8604 
295 1 0.0883 0.0887 9.4326 
296 1 1.6598 1.6602 11.0051 
297 1 3.2316 0.0886 9.4326 
298 1 4.8032 1.6592 11.0054 
299 1 6.3760 0.0884 9.4326 
300 1 7.9487 1.6590 11.0051 
301 1 9.5215 0.0889 9.4326 
302 1 11.0936 1.6610 11.0049 
303 1 12.6658 0.0889 9.4326 
304 1 14.2383 1.6598 11.0049 
305 1 15.8105 0.0884 9.4326 
306 1 17.3830 1.6599 11.0051 
307 1 18.9545 0.0886 9.4326 
308 1 20.5263 1.6604 11.0050 
309 1 0.0882 3.2321 9.4326 
310 1 1.6590 4.8036 11.0054 
311 1 3.2307 3.2310 9.4326 
312 1 4.8004 4.8006 11.0065 
313 1 6.3740 3.2284 9.4326 
314 1 7.9452 4.7957 11.0069 
315 1 9.5212 3.2319 9.4326 
316 1 11.0933 4.8061 11.0047 
317 1 12.6657 3.2324 9.4326 
318 1 14.2405 4.7999 11.0058 
319 1 15.8118 3.2304 9.4326 
320 1 17.3848 4.8025 11.0056 
321 1 18.9552 3.2318 9.4326 
322 1 20.5269 4.8041 11.0052 
323 1 0.0882 6.3764 9.4326 
324 1 1.6590 7.9491 11.0051 
325 1 3.2283 6.3743 9.4326 
326 1 4.7957 7.9454 11.0068 
327 1 6.3660 6.3661 9.4326 
328 1 7.9102 7.9102 11.0383 
329 1 9.5148 6.3756 9.4326 
330 1 11.1013 7.9570 11.0123 
331 1 12.6689 6.3752 9.4326 
332 1 14.2587 7.9290 11.0206 
333 1 15.8164 6.3711 9.4326 
334 1 17.3874 7.9475 11.0053 
335 1 18.9568 6.3755 9.4326 
336 1 20.5274 7.9492 11.0049 
337 1 0.0889 9.5219 9.4326 
338 1 1.6610 11.0940 11.0048 
339 1 3.2319 9.5216 9.4326 
340 1 4.8062 11.0936 11.0047 
341 1 6.3756 9.5149 9.4326 
342 1 7.9570 11.1014 11.0123 
343 1 9.3671 9.3671 9.4326 
344 1 11.1325 11.1326 11.2372 
345 1 12.7707 9.4880 9.4326 
346 1 14.2460 11.1014 11.0213 
347 1 15.8071 9.5194 9.4326 
348 1 17.3843 11.0936 11.0050 
349 1 18.9549 9.5214 9.4326 
350 1 20.5272 11.0940 11.0047 
351 1 0.0889 12.6662 9.4326 
352 1 1.6597 14.2387 11.0048 
353 1 3.2324 12.6660 9.4326 
354 1 4.7998 14.2408 11.0058 
355 1 6.3752 12.6691 9.4326 
356 1 7.9289 14.2589 11.0206 
357 1 9.4880 12.7708 9.4326 
358 1 11.1013 14.2461 11.0212 
359 1 12.6498 12.6499 9.4326 
360 1 14.2400 14.2401 11.0029 
361 1 15.8075 12.6646 9.4326 
362 1 17.3834 14.2387 11.0043 
363 1 18.9545 12.6662 9.4326 
364 1 20.5267 14.2385 11.0047 
365 1 0.0882 15.8109 9.4326 
366 1 1.6596 17.3834 11.0051 
367 1 3.2302 15.8121 9.4326 
368 1 4.8022 17.3852 11.0056 
369 1 6.3709 15.8167 9.4326 
370 1 7.9473 17.3876 11.0053 
371 1 9.5193 15.8073 9.4326 
372 1 11.0933 17.3844 11.0050 
373 1 12.6644 15.8076 9.4326 
374 1 14.2384 17.3835 11.0042 
375 1 15.8115 15.8117 9.4326 
376 1 17.3830 17.3832 11.0048 
377 1 18.9548 15.8109 9.4326 
378 1 20.5263 17.3829 11.0049 
379 1 0.0882 18.9549 9.4326 
380 1 1.6599 20.5267 11.0050 
381 1 3.2314 18.9556 9.4326 
382 1 4.8036 20.5272 11.0052 
383 1 6.3751 18.9571 9.4326 
384 1 7.9488 20.5275 11.0049 
385 1 9.5211 18.9551 9.4326 
386 1 11.0936 20.5272 11.0047 
387 1 12.6659 18.9546 9.4326 
388 1 14.2382 20.5268 11.0047 
389 1 15.8107 18.9551 9.4326 
390 1 17.3826 20.5266 11.0049 
391 1 18.9544 18.9548 9.4326 
392 1 20.5262 20.5266 11.0049 
393 1 0.0884 0.0888 12.5773 
394 1 1.6600 1.6603 14.1499 
395 1 3.2318 0.0887 12.5776 
396 1 4.8037 1.6595 14.1506 
397 1 6.3764 0.0886 12.5776 
398 1 7.9492 1.6602 14.1500 
399 1 9.5216 0.0893 12.5774 
400 1 11.0940 1.6605 14.1500 
401 1 12.6659 0.0893 12.5771 
402 1 14.2384 1.6603 14.1496 
403 1 15.8105 0.0886 12.5771 
404 1 17.3831 1.6600 14.1498 
405 1 18.9546 0.0887 12.5772 
406 1 20.5265 1.6605 14.1496 
407 1 0.0883 3.2322 12.5776 
408 1 1.6593 4.8040 14.1505 
409 1 3.2309 3.2312 12.5782 
410 1 4.8003 4.8005 14.1539 
411 1 6.3746 3.2287 12.5792 
412 1 7.9483 4.8018 14.1517 
413 1 9.5218 3.2311 12.5779 
414 1 11.0942 4.8028 14.1514 
415 1 12.6659 3.2315 12.5775 
416 1 14.2402 4.8015 14.1517 
417 1 15.8117 3.2304 12.5781 
418 1 17.3855 4.8022 14.1518 
419 1 18.9553 3.2319 12.5776 
420 1 20.5272 4.8043 14.1500 
421 1 0.0885 6.3767 12.5776 
422 1 1.6603 7.9494 14.1500 
423 1 3.2286 6.3749 12.5792 
424 1 4.8019 7.9484 14.1517 
425 1 6.3638 6.3639 12.5893 
426 1 7.9426 7.9425 14.1600 
427 1 9.5220 6.3711 12.5803 
428 1 11.0947 7.9478 14.1528 
429 1 12.6684 6.3705 12.5811 
430 1 14.2490 7.9402 14.1613 
431 1 15.8184 6.3698 12.5834 
432 1 17.3873 7.9476 14.1521 
433 1 18.9570 6.3759 12.5780 
434 1 20.5280 7.9492 14.1500 
435 1 0.0893 9.5219 12.5773 
436 1 1.6607 11.0942 14.1499 
437 1 3.2312 9.5220 12.5779 
438 1 4.8030 11.0943 14.1514 
439 1 6.3712 9.5221 12.5802 
440 1 7.9480 11.0947 14.1527 
441 1 9.5022 9.5021 12.5853 
442 1 11.0969 11.0968 14.1458 
443 1 12.6989 9.4978 12.6001 
444 1 14.2471 11.0947 14.1596 
445 1 15.8205 9.5199 12.5822 
446 1 17.3872 11.0943 14.1522 
447 1 18.9575 9.5216 12.5779 
448 1 20.5282 11.0942 14.1500 
449 1 0.0893 12.6662 12.5771 
450 1 1.6604 14.2387 14.1496 
451 1 3.2316 12.6661 12.5774 
452 1 4.8016 14.2404 14.1517 
453 1 6.3706 12.6686 12.5811 
454 1 7.9402 14.2491 14.1613 
455 1 9.4977 12.6989 12.6001 
456 1 11.0947 14.2471 14.1596 
457 1 12.7033 12.7034 12.6149 
458 1 14.2514 14.2514 14.1626 
459 1 15.8211 12.6707 12.5831 
460 1 17.3877 14.2412 14.1521 
461 1 18.9571 12.6665 12.5775 
462 1 20.5279 14.2389 14.1496 
463 1 0.0885 15.8108 12.5771 
464 1 1.6598 17.3833 14.1498 
465 1 3.2303 15.8120 12.5780 
466 1 4.8020 17.3857 14.1518 
467 1 6.3696 15.8186 12.5834 
468 1 7.9474 17.3873 14.1521 
469 1 9.5198 15.8206 12.5822 
470 1 11.0942 17.3872 14.1523 
471 1 12.6706 15.8212 12.5831 
472 1 14.2411 17.3876 14.1521 
473 1 15.8125 15.8127 12.5775 
474 1 17.3839 17.3840 14.1497 
475 1 18.9553 15.8110 12.5769 
476 1 20.5267 17.3830 14.1493 
477 1 0.0883 18.9549 12.5772 
478 1 1.6602 20.5268 14.1496 
479 1 3.2315 18.9556 12.5776 
480 1 4.8040 20.5274 14.1501 
481 1 6.3756 18.9572 12.5780 
482 1 7.9489 20.5280 14.1500 
483 1 9.5214 18.9575 12.5780 
484 1 11.0940 20.5281 14.1500 
485 1 12.6663 18.9571 12.5775 
486 1 14.2386 20.5279 14.1496 
487 1 15.8107 18.9554 12.5769 
488 1 17.3828 20.5269 14.1493 
489 1 18.9546 18.9549 12.5770 
490 1 20.5264 20.5267 14.1493 
491 1 0.0887 0.0889 15.7217 
492 1 1.6605 1.6606 17.2941 
493 1 3.2322 0.0888 15.7221 
494 1 4.8047 1.6607 17.2942 
495 1 6.3768 0.0893 15.7221 
496 1 7.9494 1.6609 17.2941 
497 1 9.5216 0.0895 15.7220 
498 1 11.0940 1.6610 17.2940 
499 1 12.6663 0.0895 15.7219 
500 1 14.2386 1.6609 17.2939 
501 1 15.8108 0.0893 15.7218 
502 1 17.3831 1.6606 17.2940 
503 1 18.9548 0.0888 15.7216 
504 1 20.5268 1.6607 17.2939 
505 1 0.0887 3.2324 15.7221 
506 1 1.6607 4.8048 17.2942 
507 1 3.2314 3.2315 15.7232 
508 1 4.8039 4.8039 17.2955 
509 1 6.3765 3.2316 15.7229 
510 1 7.9494 4.8044 17.2946 
511 1 9.5216 3.2321 15.7224 
512 1 11.0941 4.8044 17.2945 
513 1 12.6664 3.2321 15.7223 
514 1 14.2389 4.8042 17.2946 
515 1 15.8115 3.2315 15.7227 
516 1 17.3843 4.8036 17.2952 
517 1 18.9556 3.2319 15.7224 
518 1 20.5274 4.8047 17.2941 
519 1 0.0893 6.3770 15.7220 
520 1 1.6611 7.9495 17.2940 
521 1 3.2317 6.3766 15.7228 
522 1 4.8046 7.9494 17.2946 
523 1 6.3741 6.3741 15.7264 
524 1 7.9493 7.9492 17.2957 
525 1 9.5218 6.3758 15.7235 
526 1 11.0943 7.9490 17.2948 
527 1 12.6669 6.3757 15.7238 
528 1 14.2401 7.9484 17.2967 
529 1 15.8148 6.3734 15.7262 
530 1 17.3847 7.9487 17.2951 
531 1 18.9567 6.3762 15.7228 
532 1 20.5278 7.9493 17.2941 
533 1 0.0897 9.5218 15.7220 
534 1 1.6613 11.0941 17.2939 
535 1 3.2323 9.5217 15.7224 
536 1 4.8047 11.0941 17.2945 
537 1 6.3760 9.5218 15.7235 
538 1 7.9492 11.0941 17.2948 
539 1 9.5222 9.5221 15.7229 
540 1 11.0946 11.0944 17.2942 
541 1 12.6685 9.5215 15.7265 
542 1 14.2410 11.0941 17.2971 
543 1 15.8147 9.5207 15.7255 
544 1 17.3850 11.0941 17.2952 
545 1 18.9570 9.5215 15.7228 
546 1 20.5279 11.0941 17.2941 
547 1 0.0897 12.6665 15.7219 
548 1 1.6611 14.2386 17.2939 
549 1 3.2323 12.6666 15.7223 
550 1 4.8044 14.2389 17.2946 
551 1 6.3759 12.6669 15.7238 
552 1 7.9486 14.2399 17.2966 
553 1 9.5216 12.6684 15.7265 
554 1 11.0943 14.2408 17.2971 
555 1 12.6691 12.6690 15.7301 
556 1 14.2409 14.2407 17.2976 
557 1 15.8148 12.6680 15.7258 
558 1 17.3849 14.2396 17.2952 
559 1 18.9570 12.6668 15.7227 
560 1 20.5278 14.2388 17.2940 
561 1 0.0893 15.8110 15.7217 
562 1 1.6606 17.3832 17.2940 
563 1 3.2315 15.8116 15.7226 
564 1 4.8036 17.3843 17.2952 
565 1 6.3734 15.8148 15.7261 
566 1 7.9487 17.3846 17.2952 
567 1 9.5207 15.8146 15.7255 
568 1 11.0941 17.3848 17.2952 
569 1 12.6680 15.8147 15.7258 
570 1 14.2396 17.3848 17.2952 
571 1 15.8155 15.8154 15.7259 
572 1 17.3846 17.3845 17.2949 
573 1 18.9568 15.8120 15.7225 
574 1 20.5275 17.3833 17.2939 
575 1 0.0887 18.9550 15.7216 
576 1 1.6605 20.5269 17.2939 
577 1 3.2317 18.9557 15.7224 
578 1 4.8045 20.5274 17.2941 
579 1 6.3761 18.9567 15.7228 
580 1 7.9492 20.5276 17.2941 
581 1 9.5213 18.9568 15.7228 
582 1 11.0940 20.5276 17.2941 
583 1 12.6667 18.9568 15.7227 
584 1 14.2387 20.5276 17.2940 
585 1 15.8119 18.9568 15.7226 
586 1 17.3832 20.5274 17.2939 
587 1 18.9552 18.9553 15.7216 
588 1 20.5268 20.5269 17.2937 
589 1 0.0890 0.0891 18.8657 
590 1 1.6608 1.6609 20.4374 
591 1 3.2327 0.0892 18.8657 
592 1 4.8050 1.6610 20.4374 
593 1 6.3771 0.0894 18.8658 
594 1 7.9495 1.6611 20.4374 
595 1 9.5217 0.0895 18.8657 
596 1 11.0940 1.6611 20.4374 
597 1 12.6663 0.0895 18.8657 
598 1 14.2385 1.6611 20.4374 
599 1 15.8108 0.0894 18.8657 
600 1 17.3829 1.6610 20.4374 
601 1 18.9550 0.0892 18.8657 
602 1 20.5270 1.6609 20.4374 
603 1 0.0892 3.2329 18.8657 
604 1 1.6611 4.8051 20.4374 
605 1 3.2326 3.2326 18.8661 
606 1 4.8049 4.8048 20.4374 
607 1 6.3772 3.2328 18.8659 
608 1 7.9496 4.8049 20.4374 
609 1 9.5218 3.2329 18.8658 
610 1 11.0941 4.8048 20.4374 
611 1 12.6663 3.2328 18.8658 
612 1 14.2387 4.8047 20.4374 
613 1 15.8109 3.2327 18.8659 
614 1 17.3835 4.8045 20.4374 
615 1 18.9554 3.2325 18.8659 
616 1 20.5273 4.8050 20.4374 
617 1 0.0896 6.3773 18.8657 
618 1 1.6614 7.9496 20.4374 
619 1 3.2330 6.3773 18.8659 
620 1 4.8052 7.9495 20.4374 
621 1 6.3771 6.3770 18.8665 
622 1 7.9498 7.9496 20.4374 
623 1 9.5219 6.3769 18.8661 
624 1 11.0942 7.9493 20.4374 
625 1 12.6665 6.3768 18.8662 
626 1 14.2391 7.9492 20.4374 
627 1 15.8117 6.3764 18.8666 
628 1 17.3840 7.9491 20.4374 
629 1 18.9558 6.3769 18.8660 
630 1 20.5276 7.9494 20.4374 
631 1 0.0898 9.5218 18.8657 
632 1 1.6615 11.0941 20.4374 
633 1 3.2332 9.5218 18.8658 
634 1 4.8052 11.0940 20.4374 
635 1 6.3772 9.5217 18.8661 
636 1 7.9496 11.0940 20.4374 
637 1 9.5222 9.5219 18.8658 
638 1 11.0943 11.0941 20.4374 
639 1 12.6667 9.5217 18.8665 
640 1 14.2396 11.0940 20.4374 
641 1 15.8123 9.5213 18.8667 
642 1 17.3842 11.0940 20.4374 
643 1 18.9561 9.5216 18.8660 
644 1 20.5277 11.0941 20.4374 
645 1 0.0898 12.6663 18.8657 
646 1 1.6614 14.2385 20.4374 
647 1 3.2331 12.6663 18.8658 
648 1 4.8050 14.2386 20.4374 
649 1 6.3771 12.6663 18.8662 
650 1 7.9494 14.2389 20.4374 
651 1 9.5220 12.6665 18.8665 
652 1 11.0942 14.2393 20.4374 
653 1 12.6669 12.6667 18.8672 
654 1 14.2395 14.2393 20.4374 
655 1 15.8124 12.6667 18.8668 
656 1 17.3842 14.2390 20.4374 
657 1 18.9561 12.6665 18.8660 
658 1 20.5276 14.2387 20.4374 
659 1 0.0896 15.8108 18.8657 
660 1 1.6610 17.3829 20.4374 
661 1 3.2328 15.8109 18.8658 
662 1 4.8046 17.3834 20.4374 
663 1 6.3766 15.8115 18.8666 
664 1 7.9491 17.3837 20.4374 
665 1 9.5215 15.8120 18.8667 
666 1 11.0941 17.3839 20.4374 
667 1 12.6669 15.8121 18.8668 
668 1 14.2392 17.3839 20.4374 
669 1 15.8123 15.8121 18.8668 
670 1 17.3839 17.3837 20.4374 
671 1 18.9560 15.8112 18.8659 
672 1 20.5273 17.3831 20.4374 
673 1 0.0892 18.9550 18.8657 
674 1 1.6608 20.5270 20.4374 
675 1 3.2325 18.9554 18.8659 
676 1 4.8049 20.5272 20.4374 
677 1 6.3768 18.9556 18.8660 
678 1 7.9493 20.5273 20.4374 
679 1 9.5216 18.9558 18.8660 
680 1 11.0940 20.5274 20.4374 
681 1 12.6665 18.9559 18.8660 
682 1 14.2387 20.5274 20.4374 
683 1 15.8113 18.9558 18.8659 
684 1 17.3831 20.5273 20.4374 
685 1 18.9555 18.9555 18.8658 
686 1 20.5270 20.5270 20.4374 
687 3 10.7010 10.7010 9.4326 
