LAMMPS (2 Aug 2023)
Processor partition = 7
Reading data file ...
  orthogonal box = (0.088842503 0.11770511 -22.325705) to (65.262564 61.496192 75.684905)
  1 by 1 by 1 MPI processor grid
  reading atoms ...
  14401 atoms
  reading velocities ...
  14401 velocities
  read_data CPU = 0.037 seconds
WARNING: No fixes with time integration, atoms won't move (src/verlet.cpp:60)
Neighbor list info ...
  update: every = 1 steps, delay = 0 steps, check = yes
  max neighbors/atom: 2000, page size: 100000
  master list distance cutoff = 6.8513889
  ghost atom cutoff = 6.8513889
  binsize = 3.4256945, bins = 20 18 29
  1 neighbor lists, perpetual/occasional/extra = 1 0 0
  (1) pair eam/alloy, perpetual
      attributes: half, newton on
      pair build: half/bin/atomonly/newton
      stencil: half/bin/3d
      bin: standard
Setting up Verlet run ...
  Unit style    : metal
  Current step  : 0
  Time step     : 0.001
Per MPI rank memory allocation (min/avg/max) = 8.218 | 8.218 | 8.218 Mbytes
   Step          Temp          E_pair         E_mol          TotEng         Press     
         0   0             -127111.67      0             -127111.67      0.28232119   
Loop time of 4.58e-07 on 1 procs for 0 steps with 14401 atoms

218.3% CPU use with 1 MPI tasks x no OpenMP threads

MPI task timing breakdown:
Section |  min time  |  avg time  |  max time  |%varavg| %total
---------------------------------------------------------------
Pair    | 0          | 0          | 0          |   0.0 |  0.00
Neigh   | 0          | 0          | 0          |   0.0 |  0.00
Comm    | 0          | 0          | 0          |   0.0 |  0.00
Output  | 0          | 0          | 0          |   0.0 |  0.00
Modify  | 0          | 0          | 0          |   0.0 |  0.00
Other   |            | 4.58e-07   |            |       |100.00

Nlocal:          14401 ave       14401 max       14401 min
Histogram: 1 0 0 0 0 0 0 0 0 0
Nghost:           6973 ave        6973 max        6973 min
Histogram: 1 0 0 0 0 0 0 0 0 0
Neighs:         581784 ave      581784 max      581784 min
Histogram: 1 0 0 0 0 0 0 0 0 0

Total # of neighbors = 581784
Ave neighs/atom = 40.398861
Neighbor list builds = 0
Dangerous builds = 0
Setting up quickmin style minimization ...
  Unit style    : metal
  Current step  : 0
Per MPI rank memory allocation (min/avg/max) = 8.218 | 8.218 | 8.218 Mbytes
   Step          Temp          E_pair         E_mol          TotEng         Press     
         0   0             -127111.68      0             -127111.68     -1.8490618    
         6   0.00016815147 -127111.68      0             -127111.68     -1.6446318    
Loop time of 0.0980167 on 1 procs for 6 steps with 14401 atoms

98.6% CPU use with 1 MPI tasks x no OpenMP threads

Minimization stats:
  Stopping criterion = energy tolerance
  Energy initial, next-to-last, final = 
     -127111.677184377  -127111.677233057  -127111.677256263
  Force two-norm initial, final = 0.14641912 0.13043442
  Force max component initial, final = 0.0047494133 0.0047431929
  Final line search alpha, max atom move = 0 0
  Iterations, force evaluations = 6 6

MPI task timing breakdown:
Section |  min time  |  avg time  |  max time  |%varavg| %total
---------------------------------------------------------------
Pair    | 0.067103   | 0.067103   | 0.067103   |   0.0 | 68.46
Neigh   | 0          | 0          | 0          |   0.0 |  0.00
Comm    | 0.00028204 | 0.00028204 | 0.00028204 |   0.0 |  0.29
Output  | 0          | 0          | 0          |   0.0 |  0.00
Modify  | 0.019233   | 0.019233   | 0.019233   |   0.0 | 19.62
Other   |            | 0.0114     |            |       | 11.63

Nlocal:          14401 ave       14401 max       14401 min
Histogram: 1 0 0 0 0 0 0 0 0 0
Nghost:           6973 ave        6973 max        6973 min
Histogram: 1 0 0 0 0 0 0 0 0 0
Neighs:         581787 ave      581787 max      581787 min
Histogram: 1 0 0 0 0 0 0 0 0 0

Total # of neighbors = 581787
Ave neighs/atom = 40.39907
Neighbor list builds = 0
Dangerous builds = 0
Setting up quickmin style minimization ...
  Unit style    : metal
  Current step  : 6
Per MPI rank memory allocation (min/avg/max) = 8.218 | 8.218 | 8.218 Mbytes
   Step          Temp          E_pair         E_mol          TotEng         Press     
         6   0             -127111.68      0             -127111.68     -1.6454845    
        12   0.00018518967 -127111.68      0             -127111.68     -1.4348463    
Loop time of 0.11694 on 1 procs for 6 steps with 14401 atoms

93.6% CPU use with 1 MPI tasks x no OpenMP threads

Minimization stats:
  Stopping criterion = energy tolerance
  Energy initial, next-to-last, final = 
     -127111.677256263  -127111.677301898  -127111.677323418
  Force two-norm initial, final = 0.13043442 0.11407327
  Force max component initial, final = 0.0047431929 0.004735411
  Final line search alpha, max atom move = 0 0
  Iterations, force evaluations = 6 6

MPI task timing breakdown:
Section |  min time  |  avg time  |  max time  |%varavg| %total
---------------------------------------------------------------
Pair    | 0.072031   | 0.072031   | 0.072031   |   0.0 | 61.60
Neigh   | 0          | 0          | 0          |   0.0 |  0.00
Comm    | 0.00033558 | 0.00033558 | 0.00033558 |   0.0 |  0.29
Output  | 0          | 0          | 0          |   0.0 |  0.00
Modify  | 0.02641    | 0.02641    | 0.02641    |   0.0 | 22.58
Other   |            | 0.01816    |            |       | 15.53

Nlocal:          14401 ave       14401 max       14401 min
Histogram: 1 0 0 0 0 0 0 0 0 0
Nghost:           6973 ave        6973 max        6973 min
Histogram: 1 0 0 0 0 0 0 0 0 0
Neighs:         581787 ave      581787 max      581787 min
Histogram: 1 0 0 0 0 0 0 0 0 0

Total # of neighbors = 581787
Ave neighs/atom = 40.39907
Neighbor list builds = 0
Dangerous builds = 0
Total wall time: 0:00:00
