LAMMPS (2 Aug 2023)
Processor partition = 7
Reading data file ...
  orthogonal box = (-0.00034869473 -0.00080330488 -0.00080155278) to (37.731001 37.731455 37.731454)
  1 by 1 by 1 MPI processor grid
  reading atoms ...
  3457 atoms
  reading velocities ...
  3457 velocities
  read_data CPU = 0.014 seconds
WARNING: No fixes with time integration, atoms won't move (src/verlet.cpp:60)
Neighbor list info ...
  update: every = 1 steps, delay = 0 steps, check = yes
  max neighbors/atom: 2000, page size: 100000
  master list distance cutoff = 6.8513889
  ghost atom cutoff = 6.8513889
  binsize = 3.4256945, bins = 12 12 12
  1 neighbor lists, perpetual/occasional/extra = 1 0 0
  (1) pair eam/alloy, perpetual
      attributes: half, newton on
      pair build: half/bin/atomonly/newton
      stencil: half/bin/3d
      bin: standard
Setting up Verlet run ...
  Unit style    : metal
  Current step  : 0
  Time step     : 0.001
Per MPI rank memory allocation (min/avg/max) = 3.879 | 3.879 | 3.879 Mbytes
   Step          Temp          E_pair         E_mol          TotEng         Press     
         0   0             -30923.856      0             -30923.856      0.19429698   
Loop time of 5e-07 on 1 procs for 0 steps with 3457 atoms

0.0% CPU use with 1 MPI tasks x no OpenMP threads

MPI task timing breakdown:
Section |  min time  |  avg time  |  max time  |%varavg| %total
---------------------------------------------------------------
Pair    | 0          | 0          | 0          |   0.0 |  0.00
Neigh   | 0          | 0          | 0          |   0.0 |  0.00
Comm    | 0          | 0          | 0          |   0.0 |  0.00
Output  | 0          | 0          | 0          |   0.0 |  0.00
Modify  | 0          | 0          | 0          |   0.0 |  0.00
Other   |            | 5e-07      |            |       |100.00

Nlocal:           3457 ave        3457 max        3457 min
Histogram: 1 0 0 0 0 0 0 0 0 0
Nghost:           5553 ave        5553 max        5553 min
Histogram: 1 0 0 0 0 0 0 0 0 0
Neighs:         111788 ave      111788 max      111788 min
Histogram: 1 0 0 0 0 0 0 0 0 0

Total # of neighbors = 111788
Ave neighs/atom = 32.336708
Neighbor list builds = 0
Dangerous builds = 0
Setting up quickmin style minimization ...
  Unit style    : metal
  Current step  : 0
Per MPI rank memory allocation (min/avg/max) = 3.879 | 3.879 | 3.879 Mbytes
   Step          Temp          E_pair         E_mol          TotEng         Press     
         0   0             -30923.854      0             -30923.854      3.7008835    
        31   0.0081846857  -30923.856      0             -30923.852      0.31560132   
Loop time of 0.136494 on 1 procs for 31 steps with 3457 atoms

98.7% CPU use with 1 MPI tasks x no OpenMP threads

Minimization stats:
  Stopping criterion = energy tolerance
  Energy initial, next-to-last, final = 
     -30923.8542576947  -30923.8557986126  -30923.8558044149
  Force two-norm initial, final = 0.24002716 0.0089690233
  Force max component initial, final = 0.010919703 0.00023810232
  Final line search alpha, max atom move = 0 0
  Iterations, force evaluations = 31 31

MPI task timing breakdown:
Section |  min time  |  avg time  |  max time  |%varavg| %total
---------------------------------------------------------------
Pair    | 0.055229   | 0.055229   | 0.055229   |   0.0 | 40.46
Neigh   | 0          | 0          | 0          |   0.0 |  0.00
Comm    | 0.00060213 | 0.00060213 | 0.00060213 |   0.0 |  0.44
Output  | 0          | 0          | 0          |   0.0 |  0.00
Modify  | 0.053141   | 0.053141   | 0.053141   |   0.0 | 38.93
Other   |            | 0.02752    |            |       | 20.16

Nlocal:           3457 ave        3457 max        3457 min
Histogram: 1 0 0 0 0 0 0 0 0 0
Nghost:           5553 ave        5553 max        5553 min
Histogram: 1 0 0 0 0 0 0 0 0 0
Neighs:         111823 ave      111823 max      111823 min
Histogram: 1 0 0 0 0 0 0 0 0 0

Total # of neighbors = 111823
Ave neighs/atom = 32.346833
Neighbor list builds = 0
Dangerous builds = 0
Setting up quickmin style minimization ...
  Unit style    : metal
  Current step  : 31
Per MPI rank memory allocation (min/avg/max) = 3.879 | 3.879 | 3.879 Mbytes
   Step          Temp          E_pair         E_mol          TotEng         Press     
        31   0             -30923.856      0             -30923.856      0.24290179   
        49   0.011057818   -30923.856      0             -30923.851      0.19625645   
Loop time of 0.090035 on 1 procs for 18 steps with 3457 atoms

95.6% CPU use with 1 MPI tasks x no OpenMP threads

Minimization stats:
  Stopping criterion = energy tolerance
  Energy initial, next-to-last, final = 
     -30923.8558044148  -30923.8558259512  -30923.8558292313
  Force two-norm initial, final = 0.0089690233 0.0041074388
  Force max component initial, final = 0.00023810232 0.00011399897
  Final line search alpha, max atom move = 0 0
  Iterations, force evaluations = 18 18

MPI task timing breakdown:
Section |  min time  |  avg time  |  max time  |%varavg| %total
---------------------------------------------------------------
Pair    | 0.038986   | 0.038986   | 0.038986   |   0.0 | 43.30
Neigh   | 0          | 0          | 0          |   0.0 |  0.00
Comm    | 0.0018816  | 0.0018816  | 0.0018816  |   0.0 |  2.09
Output  | 0          | 0          | 0          |   0.0 |  0.00
Modify  | 0.036255   | 0.036255   | 0.036255   |   0.0 | 40.27
Other   |            | 0.01291    |            |       | 14.34

Nlocal:           3457 ave        3457 max        3457 min
Histogram: 1 0 0 0 0 0 0 0 0 0
Nghost:           5553 ave        5553 max        5553 min
Histogram: 1 0 0 0 0 0 0 0 0 0
Neighs:         111791 ave      111791 max      111791 min
Histogram: 1 0 0 0 0 0 0 0 0 0

Total # of neighbors = 111791
Ave neighs/atom = 32.337576
Neighbor list builds = 0
Dangerous builds = 0
Total wall time: 0:00:00
