LAMMPS (2 Aug 2023)
Processor partition = 3
Reading data file ...
  orthogonal box = (0.088841511 0.11770048 -22.326792) to (65.262565 61.496196 75.685992)
  1 by 1 by 1 MPI processor grid
  reading atoms ...
  14401 atoms
  reading velocities ...
  14401 velocities
  read_data CPU = 0.039 seconds
WARNING: No fixes with time integration, atoms won't move (src/verlet.cpp:60)
Neighbor list info ...
  update: every = 1 steps, delay = 0 steps, check = yes
  max neighbors/atom: 2000, page size: 100000
  master list distance cutoff = 6.8513889
  ghost atom cutoff = 6.8513889
  binsize = 3.4256945, bins = 20 18 29
  1 neighbor lists, perpetual/occasional/extra = 1 0 0
  (1) pair eam/alloy, perpetual
      attributes: half, newton on
      pair build: half/bin/atomonly/newton
      stencil: half/bin/3d
      bin: standard
Setting up Verlet run ...
  Unit style    : metal
  Current step  : 0
  Time step     : 0.001
Per MPI rank memory allocation (min/avg/max) = 8.216 | 8.216 | 8.216 Mbytes
   Step          Temp          E_pair         E_mol          TotEng         Press     
         0   0             -127105.45      0             -127105.45      18.046874    
Loop time of 5e-07 on 1 procs for 0 steps with 14401 atoms

200.0% CPU use with 1 MPI tasks x no OpenMP threads

MPI task timing breakdown:
Section |  min time  |  avg time  |  max time  |%varavg| %total
---------------------------------------------------------------
Pair    | 0          | 0          | 0          |   0.0 |  0.00
Neigh   | 0          | 0          | 0          |   0.0 |  0.00
Comm    | 0          | 0          | 0          |   0.0 |  0.00
Output  | 0          | 0          | 0          |   0.0 |  0.00
Modify  | 0          | 0          | 0          |   0.0 |  0.00
Other   |            | 5e-07      |            |       |100.00

Nlocal:          14401 ave       14401 max       14401 min
Histogram: 1 0 0 0 0 0 0 0 0 0
Nghost:           6973 ave        6973 max        6973 min
Histogram: 1 0 0 0 0 0 0 0 0 0
Neighs:         581635 ave      581635 max      581635 min
Histogram: 1 0 0 0 0 0 0 0 0 0

Total # of neighbors = 581635
Ave neighs/atom = 40.388515
Neighbor list builds = 0
Dangerous builds = 0
Setting up quickmin style minimization ...
  Unit style    : metal
  Current step  : 0
Per MPI rank memory allocation (min/avg/max) = 8.216 | 8.216 | 8.216 Mbytes
   Step          Temp          E_pair         E_mol          TotEng         Press     
         0   0             -127102.41      0             -127102.41      48.166454    
        12   0.031973129   -127105.36      0             -127105.3       16.611036    
Loop time of 0.148723 on 1 procs for 12 steps with 14401 atoms

99.5% CPU use with 1 MPI tasks x no OpenMP threads

Minimization stats:
  Stopping criterion = energy tolerance
  Energy initial, next-to-last, final = 
     -127102.411266787  -127105.355808098  -127105.357604995
  Force two-norm initial, final = 22.997829 0.61468849
  Force max component initial, final = 11.777891 0.3359459
  Final line search alpha, max atom move = 0 0
  Iterations, force evaluations = 12 12

MPI task timing breakdown:
Section |  min time  |  avg time  |  max time  |%varavg| %total
---------------------------------------------------------------
Pair    | 0.1353     | 0.1353     | 0.1353     |   0.0 | 90.97
Neigh   | 0          | 0          | 0          |   0.0 |  0.00
Comm    | 0.00049721 | 0.00049721 | 0.00049721 |   0.0 |  0.33
Output  | 0          | 0          | 0          |   0.0 |  0.00
Modify  | 0.0082878  | 0.0082878  | 0.0082878  |   0.0 |  5.57
Other   |            | 0.004643   |            |       |  3.12

Nlocal:          14401 ave       14401 max       14401 min
Histogram: 1 0 0 0 0 0 0 0 0 0
Nghost:           6973 ave        6973 max        6973 min
Histogram: 1 0 0 0 0 0 0 0 0 0
Neighs:         581618 ave      581618 max      581618 min
Histogram: 1 0 0 0 0 0 0 0 0 0

Total # of neighbors = 581618
Ave neighs/atom = 40.387334
Neighbor list builds = 0
Dangerous builds = 0
Setting up quickmin style minimization ...
  Unit style    : metal
  Current step  : 12
Per MPI rank memory allocation (min/avg/max) = 8.216 | 8.216 | 8.216 Mbytes
   Step          Temp          E_pair         E_mol          TotEng         Press     
        12   0             -127105.36      0             -127105.36      16.448908    
        18   0.01958689    -127105.36      0             -127105.32      16.511078    
Loop time of 0.079433 on 1 procs for 6 steps with 14401 atoms

99.9% CPU use with 1 MPI tasks x no OpenMP threads

Minimization stats:
  Stopping criterion = energy tolerance
  Energy initial, next-to-last, final = 
     -127105.357604995  -127105.360005266  -127105.360754343
  Force two-norm initial, final = 0.61468849 0.34011308
  Force max component initial, final = 0.3359459 0.18385354
  Final line search alpha, max atom move = 0 0
  Iterations, force evaluations = 6 6

MPI task timing breakdown:
Section |  min time  |  avg time  |  max time  |%varavg| %total
---------------------------------------------------------------
Pair    | 0.072601   | 0.072601   | 0.072601   |   0.0 | 91.40
Neigh   | 0          | 0          | 0          |   0.0 |  0.00
Comm    | 0.00026271 | 0.00026271 | 0.00026271 |   0.0 |  0.33
Output  | 0          | 0          | 0          |   0.0 |  0.00
Modify  | 0.0043252  | 0.0043252  | 0.0043252  |   0.0 |  5.45
Other   |            | 0.002244   |            |       |  2.82

Nlocal:          14401 ave       14401 max       14401 min
Histogram: 1 0 0 0 0 0 0 0 0 0
Nghost:           6973 ave        6973 max        6973 min
Histogram: 1 0 0 0 0 0 0 0 0 0
Neighs:         581642 ave      581642 max      581642 min
Histogram: 1 0 0 0 0 0 0 0 0 0

Total # of neighbors = 581642
Ave neighs/atom = 40.389001
Neighbor list builds = 0
Dangerous builds = 0
Total wall time: 0:00:00
