LAMMPS (2 Aug 2023)
Processor partition = 1
Reading data file ...
  orthogonal box = (-0.0023797147 -0.0023645006 -0.0022710563) to (25.156148 25.156133 25.156039)
  1 by 1 by 1 MPI processor grid
  reading atoms ...
  1025 atoms
  reading velocities ...
  1025 velocities
  read_data CPU = 0.011 seconds
WARNING: No fixes with time integration, atoms won't move (src/verlet.cpp:60)
Neighbor list info ...
  update: every = 1 steps, delay = 0 steps, check = yes
  max neighbors/atom: 2000, page size: 100000
  master list distance cutoff = 6.8513889
  ghost atom cutoff = 6.8513889
  binsize = 3.4256945, bins = 8 8 8
  1 neighbor lists, perpetual/occasional/extra = 1 0 0
  (1) pair eam/alloy, perpetual
      attributes: half, newton on
      pair build: half/bin/atomonly/newton
      stencil: half/bin/3d
      bin: standard
Setting up Verlet run ...
  Unit style    : metal
  Current step  : 0
  Time step     : 0.001
Per MPI rank memory allocation (min/avg/max) = 3.324 | 3.324 | 3.324 Mbytes
   Step          Temp          E_pair         E_mol          TotEng         Press     
         0   0             -9157.7484      0             -9157.7484     -13.790055    
Loop time of 5.42e-07 on 1 procs for 0 steps with 1025 atoms

184.5% CPU use with 1 MPI tasks x no OpenMP threads

MPI task timing breakdown:
Section |  min time  |  avg time  |  max time  |%varavg| %total
---------------------------------------------------------------
Pair    | 0          | 0          | 0          |   0.0 |  0.00
Neigh   | 0          | 0          | 0          |   0.0 |  0.00
Comm    | 0          | 0          | 0          |   0.0 |  0.00
Output  | 0          | 0          | 0          |   0.0 |  0.00
Modify  | 0          | 0          | 0          |   0.0 |  0.00
Other   |            | 5.42e-07   |            |       |100.00

Nlocal:           1025 ave        1025 max        1025 min
Histogram: 1 0 0 0 0 0 0 0 0 0
Nghost:           2901 ave        2901 max        2901 min
Histogram: 1 0 0 0 0 0 0 0 0 0
Neighs:          34016 ave       34016 max       34016 min
Histogram: 1 0 0 0 0 0 0 0 0 0

Total # of neighbors = 34016
Ave neighs/atom = 33.186341
Neighbor list builds = 0
Dangerous builds = 0
Setting up quickmin style minimization ...
  Unit style    : metal
  Current step  : 0
Per MPI rank memory allocation (min/avg/max) = 3.324 | 3.324 | 3.324 Mbytes
   Step          Temp          E_pair         E_mol          TotEng         Press     
         0   0             -9157.6163      0             -9157.6163      67.902065    
        31   0.058215092   -9157.7161      0             -9157.7084     -10.616696    
Loop time of 0.0481761 on 1 procs for 31 steps with 1025 atoms

97.5% CPU use with 1 MPI tasks x no OpenMP threads

Minimization stats:
  Stopping criterion = energy tolerance
  Energy initial, next-to-last, final = 
     -9157.61631752511  -9157.71574052948  -9157.71613568539
  Force two-norm initial, final = 2.2846541 0.28930345
  Force max component initial, final = 1.0413257 0.16411085
  Final line search alpha, max atom move = 0 0
  Iterations, force evaluations = 31 31

MPI task timing breakdown:
Section |  min time  |  avg time  |  max time  |%varavg| %total
---------------------------------------------------------------
Pair    | 0.027883   | 0.027883   | 0.027883   |   0.0 | 57.88
Neigh   | 0          | 0          | 0          |   0.0 |  0.00
Comm    | 0.00046312 | 0.00046312 | 0.00046312 |   0.0 |  0.96
Output  | 0          | 0          | 0          |   0.0 |  0.00
Modify  | 0.015037   | 0.015037   | 0.015037   |   0.0 | 31.21
Other   |            | 0.004793   |            |       |  9.95

Nlocal:           1025 ave        1025 max        1025 min
Histogram: 1 0 0 0 0 0 0 0 0 0
Nghost:           2901 ave        2901 max        2901 min
Histogram: 1 0 0 0 0 0 0 0 0 0
Neighs:          34006 ave       34006 max       34006 min
Histogram: 1 0 0 0 0 0 0 0 0 0

Total # of neighbors = 34006
Ave neighs/atom = 33.176585
Neighbor list builds = 0
Dangerous builds = 0
Setting up quickmin style minimization ...
  Unit style    : metal
  Current step  : 31
Per MPI rank memory allocation (min/avg/max) = 3.324 | 3.324 | 3.324 Mbytes
   Step          Temp          E_pair         E_mol          TotEng         Press     
        31   0             -9157.7161      0             -9157.7161     -11.13355     
        37   0.0089769088  -9157.7164      0             -9157.7152     -18.781772    
Loop time of 0.0118177 on 1 procs for 6 steps with 1025 atoms

93.5% CPU use with 1 MPI tasks x no OpenMP threads

Minimization stats:
  Stopping criterion = energy tolerance
  Energy initial, next-to-last, final = 
     -9157.71613568539  -9157.71634399803  -9157.71640841979
  Force two-norm initial, final = 0.28930345 0.1789427
  Force max component initial, final = 0.16411085 0.069305662
  Final line search alpha, max atom move = 0 0
  Iterations, force evaluations = 6 6

MPI task timing breakdown:
Section |  min time  |  avg time  |  max time  |%varavg| %total
---------------------------------------------------------------
Pair    | 0.0088625  | 0.0088625  | 0.0088625  |   0.0 | 74.99
Neigh   | 0          | 0          | 0          |   0.0 |  0.00
Comm    | 0.00015046 | 0.00015046 | 0.00015046 |   0.0 |  1.27
Output  | 0          | 0          | 0          |   0.0 |  0.00
Modify  | 0.0023855  | 0.0023855  | 0.0023855  |   0.0 | 20.19
Other   |            | 0.0004193  |            |       |  3.55

Nlocal:           1025 ave        1025 max        1025 min
Histogram: 1 0 0 0 0 0 0 0 0 0
Nghost:           2901 ave        2901 max        2901 min
Histogram: 1 0 0 0 0 0 0 0 0 0
Neighs:          33957 ave       33957 max       33957 min
Histogram: 1 0 0 0 0 0 0 0 0 0

Total # of neighbors = 33957
Ave neighs/atom = 33.12878
Neighbor list builds = 0
Dangerous builds = 0
Total wall time: 0:00:00
