LAMMPS (2 Aug 2023)
Processor partition = 7
Reading data file ...
  orthogonal box = (0.088838054 0.11770678 -22.326802) to (65.262568 61.49619 75.686002)
  1 by 1 by 1 MPI processor grid
  reading atoms ...
  14401 atoms
  reading velocities ...
  14401 velocities
  read_data CPU = 0.048 seconds
WARNING: No fixes with time integration, atoms won't move (src/verlet.cpp:60)
Neighbor list info ...
  update: every = 1 steps, delay = 0 steps, check = yes
  max neighbors/atom: 2000, page size: 100000
  master list distance cutoff = 6.8513889
  ghost atom cutoff = 6.8513889
  binsize = 3.4256945, bins = 20 18 29
  1 neighbor lists, perpetual/occasional/extra = 1 0 0
  (1) pair eam/alloy, perpetual
      attributes: half, newton on
      pair build: half/bin/atomonly/newton
      stencil: half/bin/3d
      bin: standard
Setting up Verlet run ...
  Unit style    : metal
  Current step  : 0
  Time step     : 0.001
Per MPI rank memory allocation (min/avg/max) = 8.208 | 8.208 | 8.208 Mbytes
   Step          Temp          E_pair         E_mol          TotEng         Press     
         0   0             -127104         0             -127104         57.238489    
Loop time of 4.17e-07 on 1 procs for 0 steps with 14401 atoms

0.0% CPU use with 1 MPI tasks x no OpenMP threads

MPI task timing breakdown:
Section |  min time  |  avg time  |  max time  |%varavg| %total
---------------------------------------------------------------
Pair    | 0          | 0          | 0          |   0.0 |  0.00
Neigh   | 0          | 0          | 0          |   0.0 |  0.00
Comm    | 0          | 0          | 0          |   0.0 |  0.00
Output  | 0          | 0          | 0          |   0.0 |  0.00
Modify  | 0          | 0          | 0          |   0.0 |  0.00
Other   |            | 4.17e-07   |            |       |100.00

Nlocal:          14401 ave       14401 max       14401 min
Histogram: 1 0 0 0 0 0 0 0 0 0
Nghost:           6973 ave        6973 max        6973 min
Histogram: 1 0 0 0 0 0 0 0 0 0
Neighs:         581636 ave      581636 max      581636 min
Histogram: 1 0 0 0 0 0 0 0 0 0

Total # of neighbors = 581636
Ave neighs/atom = 40.388584
Neighbor list builds = 0
Dangerous builds = 0
Setting up quickmin style minimization ...
  Unit style    : metal
  Current step  : 0
Per MPI rank memory allocation (min/avg/max) = 8.211 | 8.211 | 8.211 Mbytes
   Step          Temp          E_pair         E_mol          TotEng         Press     
         0   0             -127104         0             -127104         56.900381    
        42   0.18757181    -127104.83      0             -127104.49      44.299244    
Loop time of 0.789255 on 1 procs for 42 steps with 14401 atoms

96.6% CPU use with 1 MPI tasks x no OpenMP threads

Minimization stats:
  Stopping criterion = energy tolerance
  Energy initial, next-to-last, final = 
      -127103.99547169  -127104.833101853  -127104.834257232
  Force two-norm initial, final = 7.3848734 0.41873145
  Force max component initial, final = 2.8565624 0.26801631
  Final line search alpha, max atom move = 0 0
  Iterations, force evaluations = 42 42

MPI task timing breakdown:
Section |  min time  |  avg time  |  max time  |%varavg| %total
---------------------------------------------------------------
Pair    | 0.52631    | 0.52631    | 0.52631    |   0.0 | 66.68
Neigh   | 0          | 0          | 0          |   0.0 |  0.00
Comm    | 0.0021929  | 0.0021929  | 0.0021929  |   0.0 |  0.28
Output  | 0          | 0          | 0          |   0.0 |  0.00
Modify  | 0.16305    | 0.16305    | 0.16305    |   0.0 | 20.66
Other   |            | 0.09771    |            |       | 12.38

Nlocal:          14401 ave       14401 max       14401 min
Histogram: 1 0 0 0 0 0 0 0 0 0
Nghost:           6973 ave        6973 max        6973 min
Histogram: 1 0 0 0 0 0 0 0 0 0
Neighs:         581631 ave      581631 max      581631 min
Histogram: 1 0 0 0 0 0 0 0 0 0

Total # of neighbors = 581631
Ave neighs/atom = 40.388237
Neighbor list builds = 0
Dangerous builds = 0
Setting up quickmin style minimization ...
  Unit style    : metal
  Current step  : 42
Per MPI rank memory allocation (min/avg/max) = 8.211 | 8.211 | 8.211 Mbytes
   Step          Temp          E_pair         E_mol          TotEng         Press     
        42   0             -127104.83      0             -127104.83      43.348108    
        48   0.0095075387  -127104.84      0             -127104.82      43.604851    
Loop time of 0.128378 on 1 procs for 6 steps with 14401 atoms

96.6% CPU use with 1 MPI tasks x no OpenMP threads

Minimization stats:
  Stopping criterion = energy tolerance
  Energy initial, next-to-last, final = 
     -127104.834257232  -127104.835253009  -127104.835474488
  Force two-norm initial, final = 0.41873145 0.2717915
  Force max component initial, final = 0.26801631 0.16550737
  Final line search alpha, max atom move = 0 0
  Iterations, force evaluations = 6 6

MPI task timing breakdown:
Section |  min time  |  avg time  |  max time  |%varavg| %total
---------------------------------------------------------------
Pair    | 0.087677   | 0.087677   | 0.087677   |   0.0 | 68.30
Neigh   | 0          | 0          | 0          |   0.0 |  0.00
Comm    | 0.00036338 | 0.00036338 | 0.00036338 |   0.0 |  0.28
Output  | 0          | 0          | 0          |   0.0 |  0.00
Modify  | 0.028684   | 0.028684   | 0.028684   |   0.0 | 22.34
Other   |            | 0.01165    |            |       |  9.08

Nlocal:          14401 ave       14401 max       14401 min
Histogram: 1 0 0 0 0 0 0 0 0 0
Nghost:           6973 ave        6973 max        6973 min
Histogram: 1 0 0 0 0 0 0 0 0 0
Neighs:         581563 ave      581563 max      581563 min
Histogram: 1 0 0 0 0 0 0 0 0 0

Total # of neighbors = 581563
Ave neighs/atom = 40.383515
Neighbor list builds = 0
Dangerous builds = 0
Total wall time: 0:00:01
