LAMMPS (2 Aug 2023)
Processor partition = 3
Reading data file ...
  orthogonal box = (-0.00034869473 -0.00080330488 -0.00080155278) to (37.731001 37.731455 37.731454)
  1 by 1 by 1 MPI processor grid
  reading atoms ...
  3457 atoms
  reading velocities ...
  3457 velocities
  read_data CPU = 0.011 seconds
WARNING: No fixes with time integration, atoms won't move (src/verlet.cpp:60)
Neighbor list info ...
  update: every = 1 steps, delay = 0 steps, check = yes
  max neighbors/atom: 2000, page size: 100000
  master list distance cutoff = 6.8513889
  ghost atom cutoff = 6.8513889
  binsize = 3.4256945, bins = 12 12 12
  1 neighbor lists, perpetual/occasional/extra = 1 0 0
  (1) pair eam/alloy, perpetual
      attributes: half, newton on
      pair build: half/bin/atomonly/newton
      stencil: half/bin/3d
      bin: standard
Setting up Verlet run ...
  Unit style    : metal
  Current step  : 0
  Time step     : 0.001
Per MPI rank memory allocation (min/avg/max) = 3.879 | 3.879 | 3.879 Mbytes
   Step          Temp          E_pair         E_mol          TotEng         Press     
         0   0             -30923.856      0             -30923.856      0.19429698   
Loop time of 3.33e-07 on 1 procs for 0 steps with 3457 atoms

300.3% CPU use with 1 MPI tasks x no OpenMP threads

MPI task timing breakdown:
Section |  min time  |  avg time  |  max time  |%varavg| %total
---------------------------------------------------------------
Pair    | 0          | 0          | 0          |   0.0 |  0.00
Neigh   | 0          | 0          | 0          |   0.0 |  0.00
Comm    | 0          | 0          | 0          |   0.0 |  0.00
Output  | 0          | 0          | 0          |   0.0 |  0.00
Modify  | 0          | 0          | 0          |   0.0 |  0.00
Other   |            | 3.33e-07   |            |       |100.00

Nlocal:           3457 ave        3457 max        3457 min
Histogram: 1 0 0 0 0 0 0 0 0 0
Nghost:           5553 ave        5553 max        5553 min
Histogram: 1 0 0 0 0 0 0 0 0 0
Neighs:         111788 ave      111788 max      111788 min
Histogram: 1 0 0 0 0 0 0 0 0 0

Total # of neighbors = 111788
Ave neighs/atom = 32.336708
Neighbor list builds = 0
Dangerous builds = 0
Setting up quickmin style minimization ...
  Unit style    : metal
  Current step  : 0
Per MPI rank memory allocation (min/avg/max) = 3.879 | 3.879 | 3.879 Mbytes
   Step          Temp          E_pair         E_mol          TotEng         Press     
         0   0             -30923.433      0             -30923.433      66.989133    
        31   0.43217429    -30923.67       0             -30923.477      10.316411    
Loop time of 0.136486 on 1 procs for 31 steps with 3457 atoms

91.9% CPU use with 1 MPI tasks x no OpenMP threads

Minimization stats:
  Stopping criterion = energy tolerance
  Energy initial, next-to-last, final = 
     -30923.4325412392  -30923.6700750875  -30923.6703531058
  Force two-norm initial, final = 3.2787008 0.11697936
  Force max component initial, final = 1.6012012 0.03651481
  Final line search alpha, max atom move = 0 0
  Iterations, force evaluations = 31 31

MPI task timing breakdown:
Section |  min time  |  avg time  |  max time  |%varavg| %total
---------------------------------------------------------------
Pair    | 0.052912   | 0.052912   | 0.052912   |   0.0 | 38.77
Neigh   | 0          | 0          | 0          |   0.0 |  0.00
Comm    | 0.00059292 | 0.00059292 | 0.00059292 |   0.0 |  0.43
Output  | 0          | 0          | 0          |   0.0 |  0.00
Modify  | 0.075965   | 0.075965   | 0.075965   |   0.0 | 55.66
Other   |            | 0.007016   |            |       |  5.14

Nlocal:           3457 ave        3457 max        3457 min
Histogram: 1 0 0 0 0 0 0 0 0 0
Nghost:           5553 ave        5553 max        5553 min
Histogram: 1 0 0 0 0 0 0 0 0 0
Neighs:         111772 ave      111772 max      111772 min
Histogram: 1 0 0 0 0 0 0 0 0 0

Total # of neighbors = 111772
Ave neighs/atom = 32.33208
Neighbor list builds = 0
Dangerous builds = 0
Setting up quickmin style minimization ...
  Unit style    : metal
  Current step  : 31
Per MPI rank memory allocation (min/avg/max) = 3.879 | 3.879 | 3.879 Mbytes
   Step          Temp          E_pair         E_mol          TotEng         Press     
        31   0             -30923.67       0             -30923.67       6.4776729    
        49   0.14012006    -30923.657      0             -30923.595      7.8161747    
Loop time of 0.0900347 on 1 procs for 18 steps with 3457 atoms

99.2% CPU use with 1 MPI tasks x no OpenMP threads

Minimization stats:
  Stopping criterion = energy tolerance
  Energy initial, next-to-last, final = 
     -30923.6703531059  -30923.6576199029  -30923.6574839524
  Force two-norm initial, final = 0.34717094 0.022775958
  Force max component initial, final = 0.25156157 0.016989143
  Final line search alpha, max atom move = 0 0
  Iterations, force evaluations = 18 18

MPI task timing breakdown:
Section |  min time  |  avg time  |  max time  |%varavg| %total
---------------------------------------------------------------
Pair    | 0.036278   | 0.036278   | 0.036278   |   0.0 | 40.29
Neigh   | 0          | 0          | 0          |   0.0 |  0.00
Comm    | 0.00037096 | 0.00037096 | 0.00037096 |   0.0 |  0.41
Output  | 0          | 0          | 0          |   0.0 |  0.00
Modify  | 0.049316   | 0.049316   | 0.049316   |   0.0 | 54.77
Other   |            | 0.004069   |            |       |  4.52

Nlocal:           3457 ave        3457 max        3457 min
Histogram: 1 0 0 0 0 0 0 0 0 0
Nghost:           5553 ave        5553 max        5553 min
Histogram: 1 0 0 0 0 0 0 0 0 0
Neighs:         111795 ave      111795 max      111795 min
Histogram: 1 0 0 0 0 0 0 0 0 0

Total # of neighbors = 111795
Ave neighs/atom = 32.338733
Neighbor list builds = 0
Dangerous builds = 0
Total wall time: 0:00:00
