LAMMPS (2 Aug 2023)
Processor partition = 1
Reading data file ...
  orthogonal box = (-1.1862975e-06 -1.1862975e-06 -1.1862975e-06) to (25.153769 25.153769 25.153769)
  1 by 1 by 1 MPI processor grid
  reading atoms ...
  1025 atoms
  reading velocities ...
  1025 velocities
  read_data CPU = 0.013 seconds
WARNING: No fixes with time integration, atoms won't move (src/verlet.cpp:60)
Neighbor list info ...
  update: every = 1 steps, delay = 0 steps, check = yes
  max neighbors/atom: 2000, page size: 100000
  master list distance cutoff = 6.8513889
  ghost atom cutoff = 6.8513889
  binsize = 3.4256945, bins = 8 8 8
  1 neighbor lists, perpetual/occasional/extra = 1 0 0
  (1) pair eam/alloy, perpetual
      attributes: half, newton on
      pair build: half/bin/atomonly/newton
      stencil: half/bin/3d
      bin: standard
Setting up Verlet run ...
  Unit style    : metal
  Current step  : 0
  Time step     : 0.001
Per MPI rank memory allocation (min/avg/max) = 3.324 | 3.324 | 3.324 Mbytes
   Step          Temp          E_pair         E_mol          TotEng         Press     
         0   0             -9157.7438      0             -9157.7438      1707.327     
Loop time of 3.75e-07 on 1 procs for 0 steps with 1025 atoms

266.7% CPU use with 1 MPI tasks x no OpenMP threads

MPI task timing breakdown:
Section |  min time  |  avg time  |  max time  |%varavg| %total
---------------------------------------------------------------
Pair    | 0          | 0          | 0          |   0.0 |  0.00
Neigh   | 0          | 0          | 0          |   0.0 |  0.00
Comm    | 0          | 0          | 0          |   0.0 |  0.00
Output  | 0          | 0          | 0          |   0.0 |  0.00
Modify  | 0          | 0          | 0          |   0.0 |  0.00
Other   |            | 3.75e-07   |            |       |100.00

Nlocal:           1025 ave        1025 max        1025 min
Histogram: 1 0 0 0 0 0 0 0 0 0
Nghost:           2901 ave        2901 max        2901 min
Histogram: 1 0 0 0 0 0 0 0 0 0
Neighs:          35732 ave       35732 max       35732 min
Histogram: 1 0 0 0 0 0 0 0 0 0

Total # of neighbors = 35732
Ave neighs/atom = 34.860488
Neighbor list builds = 0
Dangerous builds = 0
Setting up quickmin style minimization ...
  Unit style    : metal
  Current step  : 0
Per MPI rank memory allocation (min/avg/max) = 3.324 | 3.324 | 3.324 Mbytes
   Step          Temp          E_pair         E_mol          TotEng         Press     
         0   0             -9157.6119      0             -9157.6119      1784.7169    
        31   0.066739327   -9157.7111      0             -9157.7023      1699.197     
Loop time of 0.056914 on 1 procs for 31 steps with 1025 atoms

91.1% CPU use with 1 MPI tasks x no OpenMP threads

Minimization stats:
  Stopping criterion = energy tolerance
  Energy initial, next-to-last, final = 
     -9157.61191541334  -9157.71102090882  -9157.71114013548
  Force two-norm initial, final = 2.2805028 0.37481464
  Force max component initial, final = 1.0440463 0.24595805
  Final line search alpha, max atom move = 0 0
  Iterations, force evaluations = 31 31

MPI task timing breakdown:
Section |  min time  |  avg time  |  max time  |%varavg| %total
---------------------------------------------------------------
Pair    | 0.022448   | 0.022448   | 0.022448   |   0.0 | 39.44
Neigh   | 0          | 0          | 0          |   0.0 |  0.00
Comm    | 0.00032946 | 0.00032946 | 0.00032946 |   0.0 |  0.58
Output  | 0          | 0          | 0          |   0.0 |  0.00
Modify  | 0.026938   | 0.026938   | 0.026938   |   0.0 | 47.33
Other   |            | 0.007199   |            |       | 12.65

Nlocal:           1025 ave        1025 max        1025 min
Histogram: 1 0 0 0 0 0 0 0 0 0
Nghost:           2901 ave        2901 max        2901 min
Histogram: 1 0 0 0 0 0 0 0 0 0
Neighs:          35735 ave       35735 max       35735 min
Histogram: 1 0 0 0 0 0 0 0 0 0

Total # of neighbors = 35735
Ave neighs/atom = 34.863415
Neighbor list builds = 0
Dangerous builds = 0
Setting up quickmin style minimization ...
  Unit style    : metal
  Current step  : 31
Per MPI rank memory allocation (min/avg/max) = 3.324 | 3.324 | 3.324 Mbytes
   Step          Temp          E_pair         E_mol          TotEng         Press     
        31   0             -9157.7111      0             -9157.7111      1698.6041    
        37   0.0066788027  -9157.7114      0             -9157.7106      1703.3685    
Loop time of 0.0103913 on 1 procs for 6 steps with 1025 atoms

98.8% CPU use with 1 MPI tasks x no OpenMP threads

Minimization stats:
  Stopping criterion = energy tolerance
  Energy initial, next-to-last, final = 
     -9157.71114013548  -9157.71138216758  -9157.71144031522
  Force two-norm initial, final = 0.37481464 0.18589181
  Force max component initial, final = 0.24595805 0.070689922
  Final line search alpha, max atom move = 0 0
  Iterations, force evaluations = 6 6

MPI task timing breakdown:
Section |  min time  |  avg time  |  max time  |%varavg| %total
---------------------------------------------------------------
Pair    | 0.005196   | 0.005196   | 0.005196   |   0.0 | 50.00
Neigh   | 0          | 0          | 0          |   0.0 |  0.00
Comm    | 8.4667e-05 | 8.4667e-05 | 8.4667e-05 |   0.0 |  0.81
Output  | 0          | 0          | 0          |   0.0 |  0.00
Modify  | 0.0044785  | 0.0044785  | 0.0044785  |   0.0 | 43.10
Other   |            | 0.0006321  |            |       |  6.08

Nlocal:           1025 ave        1025 max        1025 min
Histogram: 1 0 0 0 0 0 0 0 0 0
Nghost:           2901 ave        2901 max        2901 min
Histogram: 1 0 0 0 0 0 0 0 0 0
Neighs:          35674 ave       35674 max       35674 min
Histogram: 1 0 0 0 0 0 0 0 0 0

Total # of neighbors = 35674
Ave neighs/atom = 34.803902
Neighbor list builds = 0
Dangerous builds = 0
Total wall time: 0:00:00
