LAMMPS (2 Aug 2023)
Processor partition = 6
Reading data file ...
  orthogonal box = (-1.1862976e-06 -1.1862976e-06 -1.1862976e-06) to (25.153769 25.153769 25.153769)
  1 by 1 by 1 MPI processor grid
  reading atoms ...
  1025 atoms
  reading velocities ...
  1025 velocities
  read_data CPU = 0.012 seconds
WARNING: No fixes with time integration, atoms won't move (src/verlet.cpp:60)
Neighbor list info ...
  update: every = 1 steps, delay = 0 steps, check = yes
  max neighbors/atom: 2000, page size: 100000
  master list distance cutoff = 6.8513889
  ghost atom cutoff = 6.8513889
  binsize = 3.4256945, bins = 8 8 8
  1 neighbor lists, perpetual/occasional/extra = 1 0 0
  (1) pair eam/alloy, perpetual
      attributes: half, newton on
      pair build: half/bin/atomonly/newton
      stencil: half/bin/3d
      bin: standard
Setting up Verlet run ...
  Unit style    : metal
  Current step  : 0
  Time step     : 0.001
Per MPI rank memory allocation (min/avg/max) = 3.324 | 3.324 | 3.324 Mbytes
   Step          Temp          E_pair         E_mol          TotEng         Press     
         0   0             -9158.337       0             -9158.337       1054.2381    
Loop time of 7.92e-07 on 1 procs for 0 steps with 1025 atoms

126.3% CPU use with 1 MPI tasks x no OpenMP threads

MPI task timing breakdown:
Section |  min time  |  avg time  |  max time  |%varavg| %total
---------------------------------------------------------------
Pair    | 0          | 0          | 0          |   0.0 |  0.00
Neigh   | 0          | 0          | 0          |   0.0 |  0.00
Comm    | 0          | 0          | 0          |   0.0 |  0.00
Output  | 0          | 0          | 0          |   0.0 |  0.00
Modify  | 0          | 0          | 0          |   0.0 |  0.00
Other   |            | 7.92e-07   |            |       |100.00

Nlocal:           1025 ave        1025 max        1025 min
Histogram: 1 0 0 0 0 0 0 0 0 0
Nghost:           2901 ave        2901 max        2901 min
Histogram: 1 0 0 0 0 0 0 0 0 0
Neighs:          34292 ave       34292 max       34292 min
Histogram: 1 0 0 0 0 0 0 0 0 0

Total # of neighbors = 34292
Ave neighs/atom = 33.45561
Neighbor list builds = 0
Dangerous builds = 0
Setting up quickmin style minimization ...
  Unit style    : metal
  Current step  : 0
Per MPI rank memory allocation (min/avg/max) = 3.324 | 3.324 | 3.324 Mbytes
   Step          Temp          E_pair         E_mol          TotEng         Press     
         0   0             -9158.0925      0             -9158.0925      1175.8556    
        31   0.56115337    -9158.2684      0             -9158.1941      1022.367     
Loop time of 0.0470722 on 1 procs for 31 steps with 1025 atoms

97.6% CPU use with 1 MPI tasks x no OpenMP threads

Minimization stats:
  Stopping criterion = energy tolerance
  Energy initial, next-to-last, final = 
      -9158.0924805124  -9158.26808980145  -9158.26835771604
  Force two-norm initial, final = 2.5241186 0.066038979
  Force max component initial, final = 1.1219794 0.035200676
  Final line search alpha, max atom move = 0 0
  Iterations, force evaluations = 31 31

MPI task timing breakdown:
Section |  min time  |  avg time  |  max time  |%varavg| %total
---------------------------------------------------------------
Pair    | 0.020314   | 0.020314   | 0.020314   |   0.0 | 43.16
Neigh   | 0          | 0          | 0          |   0.0 |  0.00
Comm    | 0.00029254 | 0.00029254 | 0.00029254 |   0.0 |  0.62
Output  | 0          | 0          | 0          |   0.0 |  0.00
Modify  | 0.022321   | 0.022321   | 0.022321   |   0.0 | 47.42
Other   |            | 0.004144   |            |       |  8.80

Nlocal:           1025 ave        1025 max        1025 min
Histogram: 1 0 0 0 0 0 0 0 0 0
Nghost:           2901 ave        2901 max        2901 min
Histogram: 1 0 0 0 0 0 0 0 0 0
Neighs:          34271 ave       34271 max       34271 min
Histogram: 1 0 0 0 0 0 0 0 0 0

Total # of neighbors = 34271
Ave neighs/atom = 33.435122
Neighbor list builds = 0
Dangerous builds = 0
Setting up quickmin style minimization ...
  Unit style    : metal
  Current step  : 31
Per MPI rank memory allocation (min/avg/max) = 3.324 | 3.324 | 3.324 Mbytes
   Step          Temp          E_pair         E_mol          TotEng         Press     
        31   0             -9158.2684      0             -9158.2684      1017.3821    
        37   0.0061479354  -9158.2684      0             -9158.2676      1017.1126    
Loop time of 0.0100165 on 1 procs for 6 steps with 1025 atoms

100.0% CPU use with 1 MPI tasks x no OpenMP threads

Minimization stats:
  Stopping criterion = energy tolerance
  Energy initial, next-to-last, final = 
     -9158.26835771604  -9158.26841239267  -9158.26843880887
  Force two-norm initial, final = 0.066038979 0.062219269
  Force max component initial, final = 0.035200676 0.03313738
  Final line search alpha, max atom move = 0 0
  Iterations, force evaluations = 6 6

MPI task timing breakdown:
Section |  min time  |  avg time  |  max time  |%varavg| %total
---------------------------------------------------------------
Pair    | 0.0033209  | 0.0033209  | 0.0033209  |   0.0 | 33.15
Neigh   | 0          | 0          | 0          |   0.0 |  0.00
Comm    | 4.5749e-05 | 4.5749e-05 | 4.5749e-05 |   0.0 |  0.46
Output  | 0          | 0          | 0          |   0.0 |  0.00
Modify  | 0.0058026  | 0.0058026  | 0.0058026  |   0.0 | 57.93
Other   |            | 0.0008472  |            |       |  8.46

Nlocal:           1025 ave        1025 max        1025 min
Histogram: 1 0 0 0 0 0 0 0 0 0
Nghost:           2901 ave        2901 max        2901 min
Histogram: 1 0 0 0 0 0 0 0 0 0
Neighs:          34338 ave       34338 max       34338 min
Histogram: 1 0 0 0 0 0 0 0 0 0

Total # of neighbors = 34338
Ave neighs/atom = 33.500488
Neighbor list builds = 0
Dangerous builds = 0
Total wall time: 0:00:00
