LAMMPS (2 Aug 2023)
Processor partition = 8
Reading data file ...
  orthogonal box = (0.071096815 0.063368917 -22.328443) to (48.942458 30.743579 71.241043)
  1 by 1 by 1 MPI processor grid
  reading atoms ...
  4969 atoms
  reading velocities ...
  4969 velocities
  read_data CPU = 0.019 seconds
WARNING: No fixes with time integration, atoms won't move (src/verlet.cpp:60)
Neighbor list info ...
  update: every = 1 steps, delay = 0 steps, check = yes
  max neighbors/atom: 2000, page size: 100000
  master list distance cutoff = 6.8513889
  ghost atom cutoff = 6.8513889
  binsize = 3.4256945, bins = 15 9 28
  1 neighbor lists, perpetual/occasional/extra = 1 0 0
  (1) pair eam/alloy, perpetual
      attributes: half, newton on
      pair build: half/bin/atomonly/newton
      stencil: half/bin/3d
      bin: standard
Setting up Verlet run ...
  Unit style    : metal
  Current step  : 0
  Time step     : 0.001
Per MPI rank memory allocation (min/avg/max) = 4.295 | 4.295 | 4.295 Mbytes
   Step          Temp          E_pair         E_mol          TotEng         Press     
         0   0             -43794.137      0             -43794.137     -0.15554505   
Loop time of 4.16e-07 on 1 procs for 0 steps with 4969 atoms

0.0% CPU use with 1 MPI tasks x no OpenMP threads

MPI task timing breakdown:
Section |  min time  |  avg time  |  max time  |%varavg| %total
---------------------------------------------------------------
Pair    | 0          | 0          | 0          |   0.0 |  0.00
Neigh   | 0          | 0          | 0          |   0.0 |  0.00
Comm    | 0          | 0          | 0          |   0.0 |  0.00
Output  | 0          | 0          | 0          |   0.0 |  0.00
Modify  | 0          | 0          | 0          |   0.0 |  0.00
Other   |            | 4.16e-07   |            |       |100.00

Nlocal:           4969 ave        4969 max        4969 min
Histogram: 1 0 0 0 0 0 0 0 0 0
Nghost:           4278 ave        4278 max        4278 min
Histogram: 1 0 0 0 0 0 0 0 0 0
Neighs:         199786 ave      199786 max      199786 min
Histogram: 1 0 0 0 0 0 0 0 0 0

Total # of neighbors = 199786
Ave neighs/atom = 40.20648
Neighbor list builds = 0
Dangerous builds = 0
Setting up quickmin style minimization ...
  Unit style    : metal
  Current step  : 0
Per MPI rank memory allocation (min/avg/max) = 4.295 | 4.295 | 4.295 Mbytes
   Step          Temp          E_pair         E_mol          TotEng         Press     
         0   0             -43794.133      0             -43794.133     -6.6380861    
        23   0.011848861   -43794.134      0             -43794.127     -2.0246479    
Loop time of 0.182149 on 1 procs for 23 steps with 4969 atoms

91.1% CPU use with 1 MPI tasks x no OpenMP threads

Minimization stats:
  Stopping criterion = energy tolerance
  Energy initial, next-to-last, final = 
      -43794.132650786  -43794.1341029339  -43794.1341446311
  Force two-norm initial, final = 0.23242244 0.2302461
  Force max component initial, final = 0.1233595 0.12089967
  Final line search alpha, max atom move = 0 0
  Iterations, force evaluations = 23 23

MPI task timing breakdown:
Section |  min time  |  avg time  |  max time  |%varavg| %total
---------------------------------------------------------------
Pair    | 0.081652   | 0.081652   | 0.081652   |   0.0 | 44.83
Neigh   | 0          | 0          | 0          |   0.0 |  0.00
Comm    | 0.00047242 | 0.00047242 | 0.00047242 |   0.0 |  0.26
Output  | 0          | 0          | 0          |   0.0 |  0.00
Modify  | 0.066924   | 0.066924   | 0.066924   |   0.0 | 36.74
Other   |            | 0.0331     |            |       | 18.17

Nlocal:           4969 ave        4969 max        4969 min
Histogram: 1 0 0 0 0 0 0 0 0 0
Nghost:           4278 ave        4278 max        4278 min
Histogram: 1 0 0 0 0 0 0 0 0 0
Neighs:         199811 ave      199811 max      199811 min
Histogram: 1 0 0 0 0 0 0 0 0 0

Total # of neighbors = 199811
Ave neighs/atom = 40.211511
Neighbor list builds = 0
Dangerous builds = 0
Setting up quickmin style minimization ...
  Unit style    : metal
  Current step  : 23
Per MPI rank memory allocation (min/avg/max) = 4.298 | 4.298 | 4.298 Mbytes
   Step          Temp          E_pair         E_mol          TotEng         Press     
        23   0             -43794.134      0             -43794.134     -2.0825767    
        29   0.0005565376  -43794.134      0             -43794.134     -1.7963985    
Loop time of 0.050458 on 1 procs for 6 steps with 4969 atoms

95.2% CPU use with 1 MPI tasks x no OpenMP threads

Minimization stats:
  Stopping criterion = energy tolerance
  Energy initial, next-to-last, final = 
     -43794.1341446311  -43794.1342538167   -43794.134267639
  Force two-norm initial, final = 0.2302461 0.059622215
  Force max component initial, final = 0.12089967 0.029505857
  Final line search alpha, max atom move = 0 0
  Iterations, force evaluations = 6 6

MPI task timing breakdown:
Section |  min time  |  avg time  |  max time  |%varavg| %total
---------------------------------------------------------------
Pair    | 0.019693   | 0.019693   | 0.019693   |   0.0 | 39.03
Neigh   | 0          | 0          | 0          |   0.0 |  0.00
Comm    | 0.00013242 | 0.00013242 | 0.00013242 |   0.0 |  0.26
Output  | 0          | 0          | 0          |   0.0 |  0.00
Modify  | 0.026526   | 0.026526   | 0.026526   |   0.0 | 52.57
Other   |            | 0.004107   |            |       |  8.14

Nlocal:           4969 ave        4969 max        4969 min
Histogram: 1 0 0 0 0 0 0 0 0 0
Nghost:           4278 ave        4278 max        4278 min
Histogram: 1 0 0 0 0 0 0 0 0 0
Neighs:         199801 ave      199801 max      199801 min
Histogram: 1 0 0 0 0 0 0 0 0 0

Total # of neighbors = 199801
Ave neighs/atom = 40.209499
Neighbor list builds = 0
Dangerous builds = 0
Total wall time: 0:00:00
