LAMMPS (2 Aug 2023)
Processor partition = 2
Reading data file ...
  orthogonal box = (0.0022980543 -0.0096010385 -0.005062638) to (54.457207 51.354515 44.471062)
  1 by 1 by 1 MPI processor grid
  reading atoms ...
  8001 atoms
  reading velocities ...
  8001 velocities
  read_data CPU = 0.024 seconds
WARNING: No fixes with time integration, atoms won't move (src/verlet.cpp:60)
Neighbor list info ...
  update: every = 1 steps, delay = 0 steps, check = yes
  max neighbors/atom: 2000, page size: 100000
  master list distance cutoff = 6.8513889
  ghost atom cutoff = 6.8513889
  binsize = 3.4256945, bins = 16 15 13
  1 neighbor lists, perpetual/occasional/extra = 1 0 0
  (1) pair eam/alloy, perpetual
      attributes: half, newton on
      pair build: half/bin/atomonly/newton
      stencil: half/bin/3d
      bin: standard
Setting up Verlet run ...
  Unit style    : metal
  Current step  : 0
  Time step     : 0.001
Per MPI rank memory allocation (min/avg/max) = 7.397 | 7.397 | 7.397 Mbytes
   Step          Temp          E_pair         E_mol          TotEng         Press     
         0   0             -71571.216      0             -71571.216      127.09315    
Loop time of 3.75e-07 on 1 procs for 0 steps with 8001 atoms

0.0% CPU use with 1 MPI tasks x no OpenMP threads

MPI task timing breakdown:
Section |  min time  |  avg time  |  max time  |%varavg| %total
---------------------------------------------------------------
Pair    | 0          | 0          | 0          |   0.0 |  0.00
Neigh   | 0          | 0          | 0          |   0.0 |  0.00
Comm    | 0          | 0          | 0          |   0.0 |  0.00
Output  | 0          | 0          | 0          |   0.0 |  0.00
Modify  | 0          | 0          | 0          |   0.0 |  0.00
Other   |            | 3.75e-07   |            |       |100.00

Nlocal:           8001 ave        8001 max        8001 min
Histogram: 1 0 0 0 0 0 0 0 0 0
Nghost:           9280 ave        9280 max        9280 min
Histogram: 1 0 0 0 0 0 0 0 0 0
Neighs:         318088 ave      318088 max      318088 min
Histogram: 1 0 0 0 0 0 0 0 0 0

Total # of neighbors = 318088
Ave neighs/atom = 39.75603
Neighbor list builds = 0
Dangerous builds = 0
Setting up quickmin style minimization ...
  Unit style    : metal
  Current step  : 0
Per MPI rank memory allocation (min/avg/max) = 7.397 | 7.397 | 7.397 Mbytes
   Step          Temp          E_pair         E_mol          TotEng         Press     
         0   0             -71551.984      0             -71551.984      498.43471    
        19   0.035405987   -71570.922      0             -71570.886      130.84784    
Loop time of 0.228479 on 1 procs for 19 steps with 8001 atoms

88.7% CPU use with 1 MPI tasks x no OpenMP threads

Minimization stats:
  Stopping criterion = energy tolerance
  Energy initial, next-to-last, final = 
     -71551.9835547536  -71570.9195592425   -71570.922178684
  Force two-norm initial, final = 96.51251 0.50895778
  Force max component initial, final = 65.409544 0.34016873
  Final line search alpha, max atom move = 0 0
  Iterations, force evaluations = 19 19

MPI task timing breakdown:
Section |  min time  |  avg time  |  max time  |%varavg| %total
---------------------------------------------------------------
Pair    | 0.13069    | 0.13069    | 0.13069    |   0.0 | 57.20
Neigh   | 0          | 0          | 0          |   0.0 |  0.00
Comm    | 0.0012984  | 0.0012984  | 0.0012984  |   0.0 |  0.57
Output  | 0          | 0          | 0          |   0.0 |  0.00
Modify  | 0.075071   | 0.075071   | 0.075071   |   0.0 | 32.86
Other   |            | 0.02142    |            |       |  9.38

Nlocal:           8001 ave        8001 max        8001 min
Histogram: 1 0 0 0 0 0 0 0 0 0
Nghost:           9280 ave        9280 max        9280 min
Histogram: 1 0 0 0 0 0 0 0 0 0
Neighs:         318099 ave      318099 max      318099 min
Histogram: 1 0 0 0 0 0 0 0 0 0

Total # of neighbors = 318099
Ave neighs/atom = 39.757405
Neighbor list builds = 0
Dangerous builds = 0
Setting up quickmin style minimization ...
  Unit style    : metal
  Current step  : 19
Per MPI rank memory allocation (min/avg/max) = 7.397 | 7.397 | 7.397 Mbytes
   Step          Temp          E_pair         E_mol          TotEng         Press     
        19   0             -71570.922      0             -71570.922      130.53348    
        25   0.018956356   -71570.928      0             -71570.908      130.47144    
Loop time of 0.0731746 on 1 procs for 6 steps with 8001 atoms

95.4% CPU use with 1 MPI tasks x no OpenMP threads

Minimization stats:
  Stopping criterion = energy tolerance
  Energy initial, next-to-last, final = 
      -71570.922178684  -71570.9259511479   -71570.928009491
  Force two-norm initial, final = 0.50895778 0.5344468
  Force max component initial, final = 0.34016873 0.37046419
  Final line search alpha, max atom move = 0 0
  Iterations, force evaluations = 6 6

MPI task timing breakdown:
Section |  min time  |  avg time  |  max time  |%varavg| %total
---------------------------------------------------------------
Pair    | 0.029919   | 0.029919   | 0.029919   |   0.0 | 40.89
Neigh   | 0          | 0          | 0          |   0.0 |  0.00
Comm    | 0.00069054 | 0.00069054 | 0.00069054 |   0.0 |  0.94
Output  | 0          | 0          | 0          |   0.0 |  0.00
Modify  | 0.031856   | 0.031856   | 0.031856   |   0.0 | 43.53
Other   |            | 0.01071    |            |       | 14.63

Nlocal:           8001 ave        8001 max        8001 min
Histogram: 1 0 0 0 0 0 0 0 0 0
Nghost:           9280 ave        9280 max        9280 min
Histogram: 1 0 0 0 0 0 0 0 0 0
Neighs:         318130 ave      318130 max      318130 min
Histogram: 1 0 0 0 0 0 0 0 0 0

Total # of neighbors = 318130
Ave neighs/atom = 39.76128
Neighbor list builds = 0
Dangerous builds = 0
Total wall time: 0:00:00
