LAMMPS (2 Aug 2023)
Processor partition = 1
Reading data file ...
  orthogonal box = (-1.4828723e-06 -1.4828723e-06 -1.4828723e-06) to (31.442211 31.442211 31.442211)
  1 by 1 by 1 MPI processor grid
  reading atoms ...
  2001 atoms
  reading velocities ...
  2001 velocities
  read_data CPU = 0.009 seconds
WARNING: No fixes with time integration, atoms won't move (src/verlet.cpp:60)
Neighbor list info ...
  update: every = 1 steps, delay = 0 steps, check = yes
  max neighbors/atom: 2000, page size: 100000
  master list distance cutoff = 6.8513889
  ghost atom cutoff = 6.8513889
  binsize = 3.4256945, bins = 10 10 10
  1 neighbor lists, perpetual/occasional/extra = 1 0 0
  (1) pair eam/alloy, perpetual
      attributes: half, newton on
      pair build: half/bin/atomonly/newton
      stencil: half/bin/3d
      bin: standard
Setting up Verlet run ...
  Unit style    : metal
  Current step  : 0
  Time step     : 0.001
Per MPI rank memory allocation (min/avg/max) = 3.385 | 3.385 | 3.385 Mbytes
   Step          Temp          E_pair         E_mol          TotEng         Press     
         0   0             -17893.183      0             -17893.183      540.96771    
Loop time of 5e-07 on 1 procs for 0 steps with 2001 atoms

200.0% CPU use with 1 MPI tasks x no OpenMP threads

MPI task timing breakdown:
Section |  min time  |  avg time  |  max time  |%varavg| %total
---------------------------------------------------------------
Pair    | 0          | 0          | 0          |   0.0 |  0.00
Neigh   | 0          | 0          | 0          |   0.0 |  0.00
Comm    | 0          | 0          | 0          |   0.0 |  0.00
Output  | 0          | 0          | 0          |   0.0 |  0.00
Modify  | 0          | 0          | 0          |   0.0 |  0.00
Other   |            | 5e-07      |            |       |100.00

Nlocal:           2001 ave        2001 max        2001 min
Histogram: 1 0 0 0 0 0 0 0 0 0
Nghost:           4119 ave        4119 max        4119 min
Histogram: 1 0 0 0 0 0 0 0 0 0
Neighs:          65460 ave       65460 max       65460 min
Histogram: 1 0 0 0 0 0 0 0 0 0

Total # of neighbors = 65460
Ave neighs/atom = 32.713643
Neighbor list builds = 0
Dangerous builds = 0
Setting up quickmin style minimization ...
  Unit style    : metal
  Current step  : 0
Per MPI rank memory allocation (min/avg/max) = 3.385 | 3.385 | 3.385 Mbytes
   Step          Temp          E_pair         E_mol          TotEng         Press     
         0   0             -17893.08       0             -17893.08       564.23339    
        29   1.4719823     -17893.168      0             -17892.787      533.84704    
Loop time of 0.0787201 on 1 procs for 29 steps with 2001 atoms

93.2% CPU use with 1 MPI tasks x no OpenMP threads

Minimization stats:
  Stopping criterion = energy tolerance
  Energy initial, next-to-last, final = 
       -17893.07952199  -17893.1671303833  -17893.1679133623
  Force two-norm initial, final = 1.714282 0.078593063
  Force max component initial, final = 0.91781922 0.048108765
  Final line search alpha, max atom move = 0 0
  Iterations, force evaluations = 29 29

MPI task timing breakdown:
Section |  min time  |  avg time  |  max time  |%varavg| %total
---------------------------------------------------------------
Pair    | 0.035385   | 0.035385   | 0.035385   |   0.0 | 44.95
Neigh   | 0          | 0          | 0          |   0.0 |  0.00
Comm    | 0.00046271 | 0.00046271 | 0.00046271 |   0.0 |  0.59
Output  | 0          | 0          | 0          |   0.0 |  0.00
Modify  | 0.034546   | 0.034546   | 0.034546   |   0.0 | 43.88
Other   |            | 0.008327   |            |       | 10.58

Nlocal:           2001 ave        2001 max        2001 min
Histogram: 1 0 0 0 0 0 0 0 0 0
Nghost:           4119 ave        4119 max        4119 min
Histogram: 1 0 0 0 0 0 0 0 0 0
Neighs:          65434 ave       65434 max       65434 min
Histogram: 1 0 0 0 0 0 0 0 0 0

Total # of neighbors = 65434
Ave neighs/atom = 32.70065
Neighbor list builds = 0
Dangerous builds = 0
Setting up quickmin style minimization ...
  Unit style    : metal
  Current step  : 29
Per MPI rank memory allocation (min/avg/max) = 3.385 | 3.385 | 3.385 Mbytes
   Step          Temp          E_pair         E_mol          TotEng         Press     
        29   0             -17893.168      0             -17893.168      520.77097    
        35   0.0103877     -17893.168      0             -17893.165      520.55746    
Loop time of 0.0172637 on 1 procs for 6 steps with 2001 atoms

98.4% CPU use with 1 MPI tasks x no OpenMP threads

Minimization stats:
  Stopping criterion = energy tolerance
  Energy initial, next-to-last, final = 
     -17893.1679133623  -17893.1680321232   -17893.168088752
  Force two-norm initial, final = 0.078593063 0.07177441
  Force max component initial, final = 0.048108765 0.04370408
  Final line search alpha, max atom move = 0 0
  Iterations, force evaluations = 6 6

MPI task timing breakdown:
Section |  min time  |  avg time  |  max time  |%varavg| %total
---------------------------------------------------------------
Pair    | 0.0099961  | 0.0099961  | 0.0099961  |   0.0 | 57.90
Neigh   | 0          | 0          | 0          |   0.0 |  0.00
Comm    | 0.00012746 | 0.00012746 | 0.00012746 |   0.0 |  0.74
Output  | 0          | 0          | 0          |   0.0 |  0.00
Modify  | 0.0063294  | 0.0063294  | 0.0063294  |   0.0 | 36.66
Other   |            | 0.0008107  |            |       |  4.70

Nlocal:           2001 ave        2001 max        2001 min
Histogram: 1 0 0 0 0 0 0 0 0 0
Nghost:           4119 ave        4119 max        4119 min
Histogram: 1 0 0 0 0 0 0 0 0 0
Neighs:          65407 ave       65407 max       65407 min
Histogram: 1 0 0 0 0 0 0 0 0 0

Total # of neighbors = 65407
Ave neighs/atom = 32.687156
Neighbor list builds = 0
Dangerous builds = 0
Total wall time: 0:00:00
