LAMMPS (2 Aug 2023)
Processor partition = 2
Reading data file ...
  orthogonal box = (0.082000027 0.082000068 -15.828637) to (37.648652 37.648652 53.559289)
  1 by 1 by 1 MPI processor grid
  reading atoms ...
  3601 atoms
  reading velocities ...
  3601 velocities
  read_data CPU = 0.011 seconds
WARNING: No fixes with time integration, atoms won't move (src/verlet.cpp:60)
Neighbor list info ...
  update: every = 1 steps, delay = 0 steps, check = yes
  max neighbors/atom: 2000, page size: 100000
  master list distance cutoff = 6.8513889
  ghost atom cutoff = 6.8513889
  binsize = 3.4256945, bins = 11 11 21
  1 neighbor lists, perpetual/occasional/extra = 1 0 0
  (1) pair eam/alloy, perpetual
      attributes: half, newton on
      pair build: half/bin/atomonly/newton
      stencil: half/bin/3d
      bin: standard
Setting up Verlet run ...
  Unit style    : metal
  Current step  : 0
  Time step     : 0.001
Per MPI rank memory allocation (min/avg/max) = 3.791 | 3.791 | 3.791 Mbytes
   Step          Temp          E_pair         E_mol          TotEng         Press     
         0   0             -31517.304      0             -31517.304     -0.080910212  
Loop time of 3.75e-07 on 1 procs for 0 steps with 3601 atoms

266.7% CPU use with 1 MPI tasks x no OpenMP threads

MPI task timing breakdown:
Section |  min time  |  avg time  |  max time  |%varavg| %total
---------------------------------------------------------------
Pair    | 0          | 0          | 0          |   0.0 |  0.00
Neigh   | 0          | 0          | 0          |   0.0 |  0.00
Comm    | 0          | 0          | 0          |   0.0 |  0.00
Output  | 0          | 0          | 0          |   0.0 |  0.00
Modify  | 0          | 0          | 0          |   0.0 |  0.00
Other   |            | 3.75e-07   |            |       |100.00

Nlocal:           3601 ave        3601 max        3601 min
Histogram: 1 0 0 0 0 0 0 0 0 0
Nghost:           3229 ave        3229 max        3229 min
Histogram: 1 0 0 0 0 0 0 0 0 0
Neighs:         147769 ave      147769 max      147769 min
Histogram: 1 0 0 0 0 0 0 0 0 0

Total # of neighbors = 147769
Ave neighs/atom = 41.035546
Neighbor list builds = 0
Dangerous builds = 0
Setting up quickmin style minimization ...
  Unit style    : metal
  Current step  : 0
Per MPI rank memory allocation (min/avg/max) = 3.791 | 3.791 | 3.791 Mbytes
   Step          Temp          E_pair         E_mol          TotEng         Press     
         0   0             -31500.685      0             -31500.685      422.49758    
        39   0.032026843   -31510.216      0             -31510.201      38.565912    
Loop time of 0.0824808 on 1 procs for 39 steps with 3601 atoms

99.4% CPU use with 1 MPI tasks x no OpenMP threads

Minimization stats:
  Stopping criterion = energy tolerance
  Energy initial, next-to-last, final = 
     -31500.6846268067  -31510.2159662308  -31510.2163713753
  Force two-norm initial, final = 39.149781 0.3111603
  Force max component initial, final = 31.440539 0.099338404
  Final line search alpha, max atom move = 0 0
  Iterations, force evaluations = 39 39

MPI task timing breakdown:
Section |  min time  |  avg time  |  max time  |%varavg| %total
---------------------------------------------------------------
Pair    | 0.068746   | 0.068746   | 0.068746   |   0.0 | 83.35
Neigh   | 0          | 0          | 0          |   0.0 |  0.00
Comm    | 0.00036621 | 0.00036621 | 0.00036621 |   0.0 |  0.44
Output  | 0          | 0          | 0          |   0.0 |  0.00
Modify  | 0.011413   | 0.011413   | 0.011413   |   0.0 | 13.84
Other   |            | 0.001955   |            |       |  2.37

Nlocal:           3601 ave        3601 max        3601 min
Histogram: 1 0 0 0 0 0 0 0 0 0
Nghost:           3229 ave        3229 max        3229 min
Histogram: 1 0 0 0 0 0 0 0 0 0
Neighs:         147260 ave      147260 max      147260 min
Histogram: 1 0 0 0 0 0 0 0 0 0

Total # of neighbors = 147260
Ave neighs/atom = 40.894196
Neighbor list builds = 0
Dangerous builds = 0
Setting up quickmin style minimization ...
  Unit style    : metal
  Current step  : 39
Per MPI rank memory allocation (min/avg/max) = 3.791 | 3.791 | 3.791 Mbytes
   Step          Temp          E_pair         E_mol          TotEng         Press     
        39   0             -31510.216      0             -31510.216      38.403353    
       100   5.7528236     -31509.965      0             -31507.288      27.005277    
       141   0.42788123    -31510.223      0             -31510.024      18.684366    
Loop time of 0.204318 on 1 procs for 102 steps with 3601 atoms

99.9% CPU use with 1 MPI tasks x no OpenMP threads

Minimization stats:
  Stopping criterion = energy tolerance
  Energy initial, next-to-last, final = 
     -31510.2163713754  -31510.2198097715  -31510.2229402367
  Force two-norm initial, final = 1.0200696 1.3603288
  Force max component initial, final = 0.91340745 0.68950426
  Final line search alpha, max atom move = 0 0
  Iterations, force evaluations = 102 102

MPI task timing breakdown:
Section |  min time  |  avg time  |  max time  |%varavg| %total
---------------------------------------------------------------
Pair    | 0.17802    | 0.17802    | 0.17802    |   0.0 | 87.13
Neigh   | 0.0030858  | 0.0030858  | 0.0030858  |   0.0 |  1.51
Comm    | 0.00097571 | 0.00097571 | 0.00097571 |   0.0 |  0.48
Output  | 8.917e-06  | 8.917e-06  | 8.917e-06  |   0.0 |  0.00
Modify  | 0.01644    | 0.01644    | 0.01644    |   0.0 |  8.05
Other   |            | 0.005788   |            |       |  2.83

Nlocal:           3601 ave        3601 max        3601 min
Histogram: 1 0 0 0 0 0 0 0 0 0
Nghost:           3229 ave        3229 max        3229 min
Histogram: 1 0 0 0 0 0 0 0 0 0
Neighs:         147335 ave      147335 max      147335 min
Histogram: 1 0 0 0 0 0 0 0 0 0

Total # of neighbors = 147335
Ave neighs/atom = 40.915024
Neighbor list builds = 1
Dangerous builds = 0
Total wall time: 0:00:00
