LAMMPS (2 Aug 2023)
Processor partition = 4
Reading data file ...
  orthogonal box = (0.0023004304 -0.0095997436 -0.005064594) to (54.457205 51.354514 44.471064)
  1 by 1 by 1 MPI processor grid
  reading atoms ...
  8001 atoms
  reading velocities ...
  8001 velocities
  read_data CPU = 0.023 seconds
WARNING: No fixes with time integration, atoms won't move (src/verlet.cpp:60)
Neighbor list info ...
  update: every = 1 steps, delay = 0 steps, check = yes
  max neighbors/atom: 2000, page size: 100000
  master list distance cutoff = 6.8513889
  ghost atom cutoff = 6.8513889
  binsize = 3.4256945, bins = 16 15 13
  1 neighbor lists, perpetual/occasional/extra = 1 0 0
  (1) pair eam/alloy, perpetual
      attributes: half, newton on
      pair build: half/bin/atomonly/newton
      stencil: half/bin/3d
      bin: standard
Setting up Verlet run ...
  Unit style    : metal
  Current step  : 0
  Time step     : 0.001
Per MPI rank memory allocation (min/avg/max) = 7.397 | 7.397 | 7.397 Mbytes
   Step          Temp          E_pair         E_mol          TotEng         Press     
         0   0             -71571.216      0             -71571.216      127.26961    
Loop time of 4.17e-07 on 1 procs for 0 steps with 8001 atoms

239.8% CPU use with 1 MPI tasks x no OpenMP threads

MPI task timing breakdown:
Section |  min time  |  avg time  |  max time  |%varavg| %total
---------------------------------------------------------------
Pair    | 0          | 0          | 0          |   0.0 |  0.00
Neigh   | 0          | 0          | 0          |   0.0 |  0.00
Comm    | 0          | 0          | 0          |   0.0 |  0.00
Output  | 0          | 0          | 0          |   0.0 |  0.00
Modify  | 0          | 0          | 0          |   0.0 |  0.00
Other   |            | 4.17e-07   |            |       |100.00

Nlocal:           8001 ave        8001 max        8001 min
Histogram: 1 0 0 0 0 0 0 0 0 0
Nghost:           9280 ave        9280 max        9280 min
Histogram: 1 0 0 0 0 0 0 0 0 0
Neighs:         318089 ave      318089 max      318089 min
Histogram: 1 0 0 0 0 0 0 0 0 0

Total # of neighbors = 318089
Ave neighs/atom = 39.756155
Neighbor list builds = 0
Dangerous builds = 0
Setting up quickmin style minimization ...
  Unit style    : metal
  Current step  : 0
Per MPI rank memory allocation (min/avg/max) = 7.397 | 7.397 | 7.397 Mbytes
   Step          Temp          E_pair         E_mol          TotEng         Press     
         0   0             -71519.824      0             -71519.824      954.03919    
        19   0.058056943   -71571.144      0             -71571.084      128.66692    
Loop time of 0.197667 on 1 procs for 19 steps with 8001 atoms

99.4% CPU use with 1 MPI tasks x no OpenMP threads

Minimization stats:
  Stopping criterion = energy tolerance
  Energy initial, next-to-last, final = 
     -71519.8239084938  -71571.1431446261  -71571.1441504024
  Force two-norm initial, final = 279.65788 0.29047284
  Force max component initial, final = 146.35381 0.13291093
  Final line search alpha, max atom move = 0 0
  Iterations, force evaluations = 19 19

MPI task timing breakdown:
Section |  min time  |  avg time  |  max time  |%varavg| %total
---------------------------------------------------------------
Pair    | 0.093364   | 0.093364   | 0.093364   |   0.0 | 47.23
Neigh   | 0          | 0          | 0          |   0.0 |  0.00
Comm    | 0.00073713 | 0.00073713 | 0.00073713 |   0.0 |  0.37
Output  | 0          | 0          | 0          |   0.0 |  0.00
Modify  | 0.096642   | 0.096642   | 0.096642   |   0.0 | 48.89
Other   |            | 0.006924   |            |       |  3.50

Nlocal:           8001 ave        8001 max        8001 min
Histogram: 1 0 0 0 0 0 0 0 0 0
Nghost:           9280 ave        9280 max        9280 min
Histogram: 1 0 0 0 0 0 0 0 0 0
Neighs:         318073 ave      318073 max      318073 min
Histogram: 1 0 0 0 0 0 0 0 0 0

Total # of neighbors = 318073
Ave neighs/atom = 39.754156
Neighbor list builds = 0
Dangerous builds = 0
Setting up quickmin style minimization ...
  Unit style    : metal
  Current step  : 19
Per MPI rank memory allocation (min/avg/max) = 7.397 | 7.397 | 7.397 Mbytes
   Step          Temp          E_pair         E_mol          TotEng         Press     
        19   0             -71571.144      0             -71571.144      128.15145    
        25   0.021239111   -71571.146      0             -71571.124      128.08464    
Loop time of 0.0607227 on 1 procs for 6 steps with 8001 atoms

99.3% CPU use with 1 MPI tasks x no OpenMP threads

Minimization stats:
  Stopping criterion = energy tolerance
  Energy initial, next-to-last, final = 
     -71571.1441504024  -71571.1452218851  -71571.1457347724
  Force two-norm initial, final = 0.29047284 0.27085393
  Force max component initial, final = 0.13291093 0.1186215
  Final line search alpha, max atom move = 0 0
  Iterations, force evaluations = 6 6

MPI task timing breakdown:
Section |  min time  |  avg time  |  max time  |%varavg| %total
---------------------------------------------------------------
Pair    | 0.035335   | 0.035335   | 0.035335   |   0.0 | 58.19
Neigh   | 0          | 0          | 0          |   0.0 |  0.00
Comm    | 0.00029504 | 0.00029504 | 0.00029504 |   0.0 |  0.49
Output  | 0          | 0          | 0          |   0.0 |  0.00
Modify  | 0.022645   | 0.022645   | 0.022645   |   0.0 | 37.29
Other   |            | 0.002448   |            |       |  4.03

Nlocal:           8001 ave        8001 max        8001 min
Histogram: 1 0 0 0 0 0 0 0 0 0
Nghost:           9280 ave        9280 max        9280 min
Histogram: 1 0 0 0 0 0 0 0 0 0
Neighs:         318086 ave      318086 max      318086 min
Histogram: 1 0 0 0 0 0 0 0 0 0

Total # of neighbors = 318086
Ave neighs/atom = 39.755781
Neighbor list builds = 0
Dangerous builds = 0
Total wall time: 0:00:00
