LAMMPS (2 Aug 2023)
Processor partition = 2
Reading data file ...
  orthogonal box = (-1.4828723e-06 -1.4828723e-06 -1.4828723e-06) to (31.442211 31.442211 31.442211)
  1 by 1 by 1 MPI processor grid
  reading atoms ...
  2001 atoms
  reading velocities ...
  2001 velocities
  read_data CPU = 0.010 seconds
WARNING: No fixes with time integration, atoms won't move (src/verlet.cpp:60)
Neighbor list info ...
  update: every = 1 steps, delay = 0 steps, check = yes
  max neighbors/atom: 2000, page size: 100000
  master list distance cutoff = 6.8513889
  ghost atom cutoff = 6.8513889
  binsize = 3.4256945, bins = 10 10 10
  1 neighbor lists, perpetual/occasional/extra = 1 0 0
  (1) pair eam/alloy, perpetual
      attributes: half, newton on
      pair build: half/bin/atomonly/newton
      stencil: half/bin/3d
      bin: standard
Setting up Verlet run ...
  Unit style    : metal
  Current step  : 0
  Time step     : 0.001
Per MPI rank memory allocation (min/avg/max) = 3.385 | 3.385 | 3.385 Mbytes
   Step          Temp          E_pair         E_mol          TotEng         Press     
         0   0             -17893.183      0             -17893.183      540.96771    
Loop time of 3.33e-07 on 1 procs for 0 steps with 2001 atoms

0.0% CPU use with 1 MPI tasks x no OpenMP threads

MPI task timing breakdown:
Section |  min time  |  avg time  |  max time  |%varavg| %total
---------------------------------------------------------------
Pair    | 0          | 0          | 0          |   0.0 |  0.00
Neigh   | 0          | 0          | 0          |   0.0 |  0.00
Comm    | 0          | 0          | 0          |   0.0 |  0.00
Output  | 0          | 0          | 0          |   0.0 |  0.00
Modify  | 0          | 0          | 0          |   0.0 |  0.00
Other   |            | 3.33e-07   |            |       |100.00

Nlocal:           2001 ave        2001 max        2001 min
Histogram: 1 0 0 0 0 0 0 0 0 0
Nghost:           4119 ave        4119 max        4119 min
Histogram: 1 0 0 0 0 0 0 0 0 0
Neighs:          65460 ave       65460 max       65460 min
Histogram: 1 0 0 0 0 0 0 0 0 0

Total # of neighbors = 65460
Ave neighs/atom = 32.713643
Neighbor list builds = 0
Dangerous builds = 0
Setting up quickmin style minimization ...
  Unit style    : metal
  Current step  : 0
Per MPI rank memory allocation (min/avg/max) = 3.385 | 3.385 | 3.385 Mbytes
   Step          Temp          E_pair         E_mol          TotEng         Press     
         0   0             -17892.893      0             -17892.893      616.30889    
        29   2.5442453     -17893.087      0             -17892.429      552.72385    
Loop time of 0.0785612 on 1 procs for 29 steps with 2001 atoms

94.2% CPU use with 1 MPI tasks x no OpenMP threads

Minimization stats:
  Stopping criterion = energy tolerance
  Energy initial, next-to-last, final = 
     -17892.8929284871  -17893.0857120996  -17893.0870720039
  Force two-norm initial, final = 2.7329053 0.10285636
  Force max component initial, final = 1.2514296 0.055004509
  Final line search alpha, max atom move = 0 0
  Iterations, force evaluations = 29 29

MPI task timing breakdown:
Section |  min time  |  avg time  |  max time  |%varavg| %total
---------------------------------------------------------------
Pair    | 0.032301   | 0.032301   | 0.032301   |   0.0 | 41.12
Neigh   | 0          | 0          | 0          |   0.0 |  0.00
Comm    | 0.00040496 | 0.00040496 | 0.00040496 |   0.0 |  0.52
Output  | 0          | 0          | 0          |   0.0 |  0.00
Modify  | 0.039712   | 0.039712   | 0.039712   |   0.0 | 50.55
Other   |            | 0.006143   |            |       |  7.82

Nlocal:           2001 ave        2001 max        2001 min
Histogram: 1 0 0 0 0 0 0 0 0 0
Nghost:           4119 ave        4119 max        4119 min
Histogram: 1 0 0 0 0 0 0 0 0 0
Neighs:          65437 ave       65437 max       65437 min
Histogram: 1 0 0 0 0 0 0 0 0 0

Total # of neighbors = 65437
Ave neighs/atom = 32.702149
Neighbor list builds = 0
Dangerous builds = 0
Setting up quickmin style minimization ...
  Unit style    : metal
  Current step  : 29
Per MPI rank memory allocation (min/avg/max) = 3.385 | 3.385 | 3.385 Mbytes
   Step          Temp          E_pair         E_mol          TotEng         Press     
        29   0             -17893.087      0             -17893.087      530.12255    
        35   0.016975751   -17893.087      0             -17893.083      529.70983    
Loop time of 0.0172609 on 1 procs for 6 steps with 2001 atoms

100.0% CPU use with 1 MPI tasks x no OpenMP threads

Minimization stats:
  Stopping criterion = energy tolerance
  Energy initial, next-to-last, final = 
     -17893.0870720039  -17893.0872716124  -17893.0873651253
  Force two-norm initial, final = 0.10285636 0.092048174
  Force max component initial, final = 0.055004509 0.048789579
  Final line search alpha, max atom move = 0 0
  Iterations, force evaluations = 6 6

MPI task timing breakdown:
Section |  min time  |  avg time  |  max time  |%varavg| %total
---------------------------------------------------------------
Pair    | 0.0058701  | 0.0058701  | 0.0058701  |   0.0 | 34.01
Neigh   | 0          | 0          | 0          |   0.0 |  0.00
Comm    | 6.8876e-05 | 6.8876e-05 | 6.8876e-05 |   0.0 |  0.40
Output  | 0          | 0          | 0          |   0.0 |  0.00
Modify  | 0.010349   | 0.010349   | 0.010349   |   0.0 | 59.96
Other   |            | 0.0009725  |            |       |  5.63

Nlocal:           2001 ave        2001 max        2001 min
Histogram: 1 0 0 0 0 0 0 0 0 0
Nghost:           4119 ave        4119 max        4119 min
Histogram: 1 0 0 0 0 0 0 0 0 0
Neighs:          65458 ave       65458 max       65458 min
Histogram: 1 0 0 0 0 0 0 0 0 0

Total # of neighbors = 65458
Ave neighs/atom = 32.712644
Neighbor list builds = 0
Dangerous builds = 0
Total wall time: 0:00:00
