LAMMPS (2 Aug 2023)
Processor partition = 5
Reading data file ...
  orthogonal box = (-0.00034869473 -0.00080330488 -0.00080155278) to (37.731001 37.731455 37.731454)
  1 by 1 by 1 MPI processor grid
  reading atoms ...
  3457 atoms
  reading velocities ...
  3457 velocities
  read_data CPU = 0.013 seconds
WARNING: No fixes with time integration, atoms won't move (src/verlet.cpp:60)
Neighbor list info ...
  update: every = 1 steps, delay = 0 steps, check = yes
  max neighbors/atom: 2000, page size: 100000
  master list distance cutoff = 6.8513889
  ghost atom cutoff = 6.8513889
  binsize = 3.4256945, bins = 12 12 12
  1 neighbor lists, perpetual/occasional/extra = 1 0 0
  (1) pair eam/alloy, perpetual
      attributes: half, newton on
      pair build: half/bin/atomonly/newton
      stencil: half/bin/3d
      bin: standard
Setting up Verlet run ...
  Unit style    : metal
  Current step  : 0
  Time step     : 0.001
Per MPI rank memory allocation (min/avg/max) = 3.879 | 3.879 | 3.879 Mbytes
   Step          Temp          E_pair         E_mol          TotEng         Press     
         0   0             -30923.856      0             -30923.856      0.19429698   
Loop time of 3.75e-07 on 1 procs for 0 steps with 3457 atoms

266.7% CPU use with 1 MPI tasks x no OpenMP threads

MPI task timing breakdown:
Section |  min time  |  avg time  |  max time  |%varavg| %total
---------------------------------------------------------------
Pair    | 0          | 0          | 0          |   0.0 |  0.00
Neigh   | 0          | 0          | 0          |   0.0 |  0.00
Comm    | 0          | 0          | 0          |   0.0 |  0.00
Output  | 0          | 0          | 0          |   0.0 |  0.00
Modify  | 0          | 0          | 0          |   0.0 |  0.00
Other   |            | 3.75e-07   |            |       |100.00

Nlocal:           3457 ave        3457 max        3457 min
Histogram: 1 0 0 0 0 0 0 0 0 0
Nghost:           5553 ave        5553 max        5553 min
Histogram: 1 0 0 0 0 0 0 0 0 0
Neighs:         111788 ave      111788 max      111788 min
Histogram: 1 0 0 0 0 0 0 0 0 0

Total # of neighbors = 111788
Ave neighs/atom = 32.336708
Neighbor list builds = 0
Dangerous builds = 0
Setting up quickmin style minimization ...
  Unit style    : metal
  Current step  : 0
Per MPI rank memory allocation (min/avg/max) = 3.879 | 3.879 | 3.879 Mbytes
   Step          Temp          E_pair         E_mol          TotEng         Press     
         0   0             -30923.565      0             -30923.565      45.393536    
        31   1.067009      -30923.761      0             -30923.284      1.5416628    
Loop time of 0.136487 on 1 procs for 31 steps with 3457 atoms

94.8% CPU use with 1 MPI tasks x no OpenMP threads

Minimization stats:
  Stopping criterion = energy tolerance
  Energy initial, next-to-last, final = 
     -30923.5647673915   -30923.760392528  -30923.7605156387
  Force two-norm initial, final = 2.7360089 0.19298935
  Force max component initial, final = 1.2490839 0.044337803
  Final line search alpha, max atom move = 0 0
  Iterations, force evaluations = 31 31

MPI task timing breakdown:
Section |  min time  |  avg time  |  max time  |%varavg| %total
---------------------------------------------------------------
Pair    | 0.077804   | 0.077804   | 0.077804   |   0.0 | 57.00
Neigh   | 0          | 0          | 0          |   0.0 |  0.00
Comm    | 0.00078787 | 0.00078787 | 0.00078787 |   0.0 |  0.58
Output  | 0          | 0          | 0          |   0.0 |  0.00
Modify  | 0.040675   | 0.040675   | 0.040675   |   0.0 | 29.80
Other   |            | 0.01722    |            |       | 12.62

Nlocal:           3457 ave        3457 max        3457 min
Histogram: 1 0 0 0 0 0 0 0 0 0
Nghost:           5553 ave        5553 max        5553 min
Histogram: 1 0 0 0 0 0 0 0 0 0
Neighs:         111774 ave      111774 max      111774 min
Histogram: 1 0 0 0 0 0 0 0 0 0

Total # of neighbors = 111774
Ave neighs/atom = 32.332658
Neighbor list builds = 0
Dangerous builds = 0
Setting up quickmin style minimization ...
  Unit style    : metal
  Current step  : 31
Per MPI rank memory allocation (min/avg/max) = 3.879 | 3.879 | 3.879 Mbytes
   Step          Temp          E_pair         E_mol          TotEng         Press     
        31   0             -30923.761      0             -30923.761     -7.9359217    
        49   0.092796116   -30923.762      0             -30923.72      -8.920749     
Loop time of 0.090038 on 1 procs for 18 steps with 3457 atoms

95.4% CPU use with 1 MPI tasks x no OpenMP threads

Minimization stats:
  Stopping criterion = energy tolerance
  Energy initial, next-to-last, final = 
     -30923.7605156386  -30923.7615531523  -30923.7615972716
  Force two-norm initial, final = 0.19298935 0.014044596
  Force max component initial, final = 0.044337803 0.0056691028
  Final line search alpha, max atom move = 0 0
  Iterations, force evaluations = 18 18

MPI task timing breakdown:
Section |  min time  |  avg time  |  max time  |%varavg| %total
---------------------------------------------------------------
Pair    | 0.035743   | 0.035743   | 0.035743   |   0.0 | 39.70
Neigh   | 0          | 0          | 0          |   0.0 |  0.00
Comm    | 0.00040679 | 0.00040679 | 0.00040679 |   0.0 |  0.45
Output  | 0          | 0          | 0          |   0.0 |  0.00
Modify  | 0.049443   | 0.049443   | 0.049443   |   0.0 | 54.91
Other   |            | 0.004445   |            |       |  4.94

Nlocal:           3457 ave        3457 max        3457 min
Histogram: 1 0 0 0 0 0 0 0 0 0
Nghost:           5553 ave        5553 max        5553 min
Histogram: 1 0 0 0 0 0 0 0 0 0
Neighs:         111800 ave      111800 max      111800 min
Histogram: 1 0 0 0 0 0 0 0 0 0

Total # of neighbors = 111800
Ave neighs/atom = 32.340179
Neighbor list builds = 0
Dangerous builds = 0
Total wall time: 0:00:00
