LAMMPS (2 Aug 2023)
Processor partition = 5
Reading data file ...
  orthogonal box = (-0.0023797147 -0.0023645006 -0.0022710563) to (25.156148 25.156133 25.156039)
  1 by 1 by 1 MPI processor grid
  reading atoms ...
  1025 atoms
  reading velocities ...
  1025 velocities
  read_data CPU = 0.011 seconds
WARNING: No fixes with time integration, atoms won't move (src/verlet.cpp:60)
Neighbor list info ...
  update: every = 1 steps, delay = 0 steps, check = yes
  max neighbors/atom: 2000, page size: 100000
  master list distance cutoff = 6.8513889
  ghost atom cutoff = 6.8513889
  binsize = 3.4256945, bins = 8 8 8
  1 neighbor lists, perpetual/occasional/extra = 1 0 0
  (1) pair eam/alloy, perpetual
      attributes: half, newton on
      pair build: half/bin/atomonly/newton
      stencil: half/bin/3d
      bin: standard
Setting up Verlet run ...
  Unit style    : metal
  Current step  : 0
  Time step     : 0.001
Per MPI rank memory allocation (min/avg/max) = 3.324 | 3.324 | 3.324 Mbytes
   Step          Temp          E_pair         E_mol          TotEng         Press     
         0   0             -9157.7484      0             -9157.7484     -13.790055    
Loop time of 7.5e-07 on 1 procs for 0 steps with 1025 atoms

0.0% CPU use with 1 MPI tasks x no OpenMP threads

MPI task timing breakdown:
Section |  min time  |  avg time  |  max time  |%varavg| %total
---------------------------------------------------------------
Pair    | 0          | 0          | 0          |   0.0 |  0.00
Neigh   | 0          | 0          | 0          |   0.0 |  0.00
Comm    | 0          | 0          | 0          |   0.0 |  0.00
Output  | 0          | 0          | 0          |   0.0 |  0.00
Modify  | 0          | 0          | 0          |   0.0 |  0.00
Other   |            | 7.5e-07    |            |       |100.00

Nlocal:           1025 ave        1025 max        1025 min
Histogram: 1 0 0 0 0 0 0 0 0 0
Nghost:           2901 ave        2901 max        2901 min
Histogram: 1 0 0 0 0 0 0 0 0 0
Neighs:          34016 ave       34016 max       34016 min
Histogram: 1 0 0 0 0 0 0 0 0 0

Total # of neighbors = 34016
Ave neighs/atom = 33.186341
Neighbor list builds = 0
Dangerous builds = 0
Setting up quickmin style minimization ...
  Unit style    : metal
  Current step  : 0
Per MPI rank memory allocation (min/avg/max) = 3.324 | 3.324 | 3.324 Mbytes
   Step          Temp          E_pair         E_mol          TotEng         Press     
         0   0             -9157.19        0             -9157.19        98.293963    
        31   0.13441922    -9157.6001      0             -9157.5823     -143.63507    
Loop time of 0.0481799 on 1 procs for 31 steps with 1025 atoms

98.6% CPU use with 1 MPI tasks x no OpenMP threads

Minimization stats:
  Stopping criterion = energy tolerance
  Energy initial, next-to-last, final = 
     -9157.18996591871  -9157.59958272794  -9157.60012818754
  Force two-norm initial, final = 4.6619594 0.380541
  Force max component initial, final = 2.004613 0.13684884
  Final line search alpha, max atom move = 0 0
  Iterations, force evaluations = 31 31

MPI task timing breakdown:
Section |  min time  |  avg time  |  max time  |%varavg| %total
---------------------------------------------------------------
Pair    | 0.025495   | 0.025495   | 0.025495   |   0.0 | 52.92
Neigh   | 0          | 0          | 0          |   0.0 |  0.00
Comm    | 0.00041642 | 0.00041642 | 0.00041642 |   0.0 |  0.86
Output  | 0          | 0          | 0          |   0.0 |  0.00
Modify  | 0.018034   | 0.018034   | 0.018034   |   0.0 | 37.43
Other   |            | 0.004234   |            |       |  8.79

Nlocal:           1025 ave        1025 max        1025 min
Histogram: 1 0 0 0 0 0 0 0 0 0
Nghost:           2901 ave        2901 max        2901 min
Histogram: 1 0 0 0 0 0 0 0 0 0
Neighs:          33967 ave       33967 max       33967 min
Histogram: 1 0 0 0 0 0 0 0 0 0

Total # of neighbors = 33967
Ave neighs/atom = 33.138537
Neighbor list builds = 0
Dangerous builds = 0
Setting up quickmin style minimization ...
  Unit style    : metal
  Current step  : 31
Per MPI rank memory allocation (min/avg/max) = 3.324 | 3.324 | 3.324 Mbytes
   Step          Temp          E_pair         E_mol          TotEng         Press     
        31   0             -9157.6001      0             -9157.6001     -144.82849    
        37   0.036472265   -9157.601       0             -9157.5962     -142.40669    
Loop time of 0.0118158 on 1 procs for 6 steps with 1025 atoms

99.2% CPU use with 1 MPI tasks x no OpenMP threads

Minimization stats:
  Stopping criterion = energy tolerance
  Energy initial, next-to-last, final = 
     -9157.60012818754  -9157.60073138197  -9157.60099434904
  Force two-norm initial, final = 0.380541 0.35939301
  Force max component initial, final = 0.13684884 0.12929077
  Final line search alpha, max atom move = 0 0
  Iterations, force evaluations = 6 6

MPI task timing breakdown:
Section |  min time  |  avg time  |  max time  |%varavg| %total
---------------------------------------------------------------
Pair    | 0.0049557  | 0.0049557  | 0.0049557  |   0.0 | 41.94
Neigh   | 0          | 0          | 0          |   0.0 |  0.00
Comm    | 6.4168e-05 | 6.4168e-05 | 6.4168e-05 |   0.0 |  0.54
Output  | 0          | 0          | 0          |   0.0 |  0.00
Modify  | 0.0052014  | 0.0052014  | 0.0052014  |   0.0 | 44.02
Other   |            | 0.001595   |            |       | 13.50

Nlocal:           1025 ave        1025 max        1025 min
Histogram: 1 0 0 0 0 0 0 0 0 0
Nghost:           2901 ave        2901 max        2901 min
Histogram: 1 0 0 0 0 0 0 0 0 0
Neighs:          33952 ave       33952 max       33952 min
Histogram: 1 0 0 0 0 0 0 0 0 0

Total # of neighbors = 33952
Ave neighs/atom = 33.123902
Neighbor list builds = 0
Dangerous builds = 0
Total wall time: 0:00:00
