LAMMPS (2 Aug 2023)
Processor partition = 5
Reading data file ...
  orthogonal box = (0.088834211 0.11770924 -22.326637) to (65.262572 61.496187 75.685837)
  1 by 1 by 1 MPI processor grid
  reading atoms ...
  14401 atoms
  reading velocities ...
  14401 velocities
  read_data CPU = 0.031 seconds
WARNING: No fixes with time integration, atoms won't move (src/verlet.cpp:60)
Neighbor list info ...
  update: every = 1 steps, delay = 0 steps, check = yes
  max neighbors/atom: 2000, page size: 100000
  master list distance cutoff = 6.8513889
  ghost atom cutoff = 6.8513889
  binsize = 3.4256945, bins = 20 18 29
  1 neighbor lists, perpetual/occasional/extra = 1 0 0
  (1) pair eam/alloy, perpetual
      attributes: half, newton on
      pair build: half/bin/atomonly/newton
      stencil: half/bin/3d
      bin: standard
Setting up Verlet run ...
  Unit style    : metal
  Current step  : 0
  Time step     : 0.001
Per MPI rank memory allocation (min/avg/max) = 8.213 | 8.213 | 8.213 Mbytes
   Step          Temp          E_pair         E_mol          TotEng         Press     
         0   0             -127104.84      0             -127104.84      30.547332    
Loop time of 3.75e-07 on 1 procs for 0 steps with 14401 atoms

266.7% CPU use with 1 MPI tasks x no OpenMP threads

MPI task timing breakdown:
Section |  min time  |  avg time  |  max time  |%varavg| %total
---------------------------------------------------------------
Pair    | 0          | 0          | 0          |   0.0 |  0.00
Neigh   | 0          | 0          | 0          |   0.0 |  0.00
Comm    | 0          | 0          | 0          |   0.0 |  0.00
Output  | 0          | 0          | 0          |   0.0 |  0.00
Modify  | 0          | 0          | 0          |   0.0 |  0.00
Other   |            | 3.75e-07   |            |       |100.00

Nlocal:          14401 ave       14401 max       14401 min
Histogram: 1 0 0 0 0 0 0 0 0 0
Nghost:           6973 ave        6973 max        6973 min
Histogram: 1 0 0 0 0 0 0 0 0 0
Neighs:         581575 ave      581575 max      581575 min
Histogram: 1 0 0 0 0 0 0 0 0 0

Total # of neighbors = 581575
Ave neighs/atom = 40.384348
Neighbor list builds = 0
Dangerous builds = 0
Setting up quickmin style minimization ...
  Unit style    : metal
  Current step  : 0
Per MPI rank memory allocation (min/avg/max) = 8.213 | 8.213 | 8.213 Mbytes
   Step          Temp          E_pair         E_mol          TotEng         Press     
         0   0             -127104.84      0             -127104.84      30.490059    
        13   0.034624322   -127104.84      0             -127104.77      30.703961    
Loop time of 0.135335 on 1 procs for 13 steps with 14401 atoms

99.9% CPU use with 1 MPI tasks x no OpenMP threads

Minimization stats:
  Stopping criterion = energy tolerance
  Energy initial, next-to-last, final = 
     -127104.836595626  -127104.836230762  -127104.836571482
  Force two-norm initial, final = 0.13615841 0.38015789
  Force max component initial, final = 0.0048560564 0.24001723
  Final line search alpha, max atom move = 0 0
  Iterations, force evaluations = 13 13

MPI task timing breakdown:
Section |  min time  |  avg time  |  max time  |%varavg| %total
---------------------------------------------------------------
Pair    | 0.10712    | 0.10712    | 0.10712    |   0.0 | 79.15
Neigh   | 0          | 0          | 0          |   0.0 |  0.00
Comm    | 0.00039883 | 0.00039883 | 0.00039883 |   0.0 |  0.29
Output  | 0          | 0          | 0          |   0.0 |  0.00
Modify  | 0.018794   | 0.018794   | 0.018794   |   0.0 | 13.89
Other   |            | 0.009023   |            |       |  6.67

Nlocal:          14401 ave       14401 max       14401 min
Histogram: 1 0 0 0 0 0 0 0 0 0
Nghost:           6973 ave        6973 max        6973 min
Histogram: 1 0 0 0 0 0 0 0 0 0
Neighs:         581514 ave      581514 max      581514 min
Histogram: 1 0 0 0 0 0 0 0 0 0

Total # of neighbors = 581514
Ave neighs/atom = 40.380112
Neighbor list builds = 0
Dangerous builds = 0
Setting up quickmin style minimization ...
  Unit style    : metal
  Current step  : 13
Per MPI rank memory allocation (min/avg/max) = 8.213 | 8.213 | 8.213 Mbytes
   Step          Temp          E_pair         E_mol          TotEng         Press     
        13   0             -127104.84      0             -127104.84      30.528388    
        19   5.5371956e-05 -127104.84      0             -127104.84      30.470703    
Loop time of 0.063197 on 1 procs for 6 steps with 14401 atoms

97.8% CPU use with 1 MPI tasks x no OpenMP threads

Minimization stats:
  Stopping criterion = energy tolerance
  Energy initial, next-to-last, final = 
     -127104.836571482  -127104.836924411  -127104.836926023
  Force two-norm initial, final = 0.38015789 0.036314578
  Force max component initial, final = 0.24001723 0.020109373
  Final line search alpha, max atom move = 0 0
  Iterations, force evaluations = 6 6

MPI task timing breakdown:
Section |  min time  |  avg time  |  max time  |%varavg| %total
---------------------------------------------------------------
Pair    | 0.057031   | 0.057031   | 0.057031   |   0.0 | 90.24
Neigh   | 0          | 0          | 0          |   0.0 |  0.00
Comm    | 0.00029962 | 0.00029962 | 0.00029962 |   0.0 |  0.47
Output  | 0          | 0          | 0          |   0.0 |  0.00
Modify  | 0.0018439  | 0.0018439  | 0.0018439  |   0.0 |  2.92
Other   |            | 0.004022   |            |       |  6.36

Nlocal:          14401 ave       14401 max       14401 min
Histogram: 1 0 0 0 0 0 0 0 0 0
Nghost:           6973 ave        6973 max        6973 min
Histogram: 1 0 0 0 0 0 0 0 0 0
Neighs:         581512 ave      581512 max      581512 min
Histogram: 1 0 0 0 0 0 0 0 0 0

Total # of neighbors = 581512
Ave neighs/atom = 40.379974
Neighbor list builds = 0
Dangerous builds = 0
Total wall time: 0:00:00
