LAMMPS (2 Aug 2023)
Processor partition = 4
Reading data file ...
  orthogonal box = (-1.1862976e-06 -1.1862976e-06 -1.1862976e-06) to (25.153769 25.153769 25.153769)
  1 by 1 by 1 MPI processor grid
  reading atoms ...
  1025 atoms
  reading velocities ...
  1025 velocities
  read_data CPU = 0.010 seconds
WARNING: No fixes with time integration, atoms won't move (src/verlet.cpp:60)
Neighbor list info ...
  update: every = 1 steps, delay = 0 steps, check = yes
  max neighbors/atom: 2000, page size: 100000
  master list distance cutoff = 6.8513889
  ghost atom cutoff = 6.8513889
  binsize = 3.4256945, bins = 8 8 8
  1 neighbor lists, perpetual/occasional/extra = 1 0 0
  (1) pair eam/alloy, perpetual
      attributes: half, newton on
      pair build: half/bin/atomonly/newton
      stencil: half/bin/3d
      bin: standard
Setting up Verlet run ...
  Unit style    : metal
  Current step  : 0
  Time step     : 0.001
Per MPI rank memory allocation (min/avg/max) = 3.324 | 3.324 | 3.324 Mbytes
   Step          Temp          E_pair         E_mol          TotEng         Press     
         0   0             -9158.337       0             -9158.337       1054.2381    
Loop time of 3.75e-07 on 1 procs for 0 steps with 1025 atoms

0.0% CPU use with 1 MPI tasks x no OpenMP threads

MPI task timing breakdown:
Section |  min time  |  avg time  |  max time  |%varavg| %total
---------------------------------------------------------------
Pair    | 0          | 0          | 0          |   0.0 |  0.00
Neigh   | 0          | 0          | 0          |   0.0 |  0.00
Comm    | 0          | 0          | 0          |   0.0 |  0.00
Output  | 0          | 0          | 0          |   0.0 |  0.00
Modify  | 0          | 0          | 0          |   0.0 |  0.00
Other   |            | 3.75e-07   |            |       |100.00

Nlocal:           1025 ave        1025 max        1025 min
Histogram: 1 0 0 0 0 0 0 0 0 0
Nghost:           2901 ave        2901 max        2901 min
Histogram: 1 0 0 0 0 0 0 0 0 0
Neighs:          34292 ave       34292 max       34292 min
Histogram: 1 0 0 0 0 0 0 0 0 0

Total # of neighbors = 34292
Ave neighs/atom = 33.45561
Neighbor list builds = 0
Dangerous builds = 0
Setting up quickmin style minimization ...
  Unit style    : metal
  Current step  : 0
Per MPI rank memory allocation (min/avg/max) = 3.324 | 3.324 | 3.324 Mbytes
   Step          Temp          E_pair         E_mol          TotEng         Press     
         0   0             -9157.8951      0             -9157.8951      1290.2428    
        31   0.33170435    -9158.1376      0             -9158.0937      1091.1598    
Loop time of 0.0470723 on 1 procs for 31 steps with 1025 atoms

97.3% CPU use with 1 MPI tasks x no OpenMP threads

Minimization stats:
  Stopping criterion = energy tolerance
  Energy initial, next-to-last, final = 
     -9157.89506635676  -9158.13743626218  -9158.13762202563
  Force two-norm initial, final = 3.3518416 0.072581638
  Force max component initial, final = 1.6499524 0.034807024
  Final line search alpha, max atom move = 0 0
  Iterations, force evaluations = 31 31

MPI task timing breakdown:
Section |  min time  |  avg time  |  max time  |%varavg| %total
---------------------------------------------------------------
Pair    | 0.018564   | 0.018564   | 0.018564   |   0.0 | 39.44
Neigh   | 0          | 0          | 0          |   0.0 |  0.00
Comm    | 0.00027254 | 0.00027254 | 0.00027254 |   0.0 |  0.58
Output  | 0          | 0          | 0          |   0.0 |  0.00
Modify  | 0.025186   | 0.025186   | 0.025186   |   0.0 | 53.50
Other   |            | 0.00305    |            |       |  6.48

Nlocal:           1025 ave        1025 max        1025 min
Histogram: 1 0 0 0 0 0 0 0 0 0
Nghost:           2901 ave        2901 max        2901 min
Histogram: 1 0 0 0 0 0 0 0 0 0
Neighs:          34304 ave       34304 max       34304 min
Histogram: 1 0 0 0 0 0 0 0 0 0

Total # of neighbors = 34304
Ave neighs/atom = 33.467317
Neighbor list builds = 0
Dangerous builds = 0
Setting up quickmin style minimization ...
  Unit style    : metal
  Current step  : 31
Per MPI rank memory allocation (min/avg/max) = 3.324 | 3.324 | 3.324 Mbytes
   Step          Temp          E_pair         E_mol          TotEng         Press     
        31   0             -9158.1376      0             -9158.1376      1088.2132    
        37   0.0083214493  -9158.1377      0             -9158.1366      1087.6188    
Loop time of 0.0100185 on 1 procs for 6 steps with 1025 atoms

96.3% CPU use with 1 MPI tasks x no OpenMP threads

Minimization stats:
  Stopping criterion = energy tolerance
  Energy initial, next-to-last, final = 
     -9158.13762202563   -9158.1376881598  -9158.13772021326
  Force two-norm initial, final = 0.072581641 0.068600196
  Force max component initial, final = 0.034822132 0.034250692
  Final line search alpha, max atom move = 0 0
  Iterations, force evaluations = 6 6

MPI task timing breakdown:
Section |  min time  |  avg time  |  max time  |%varavg| %total
---------------------------------------------------------------
Pair    | 0.0084501  | 0.0084501  | 0.0084501  |   0.0 | 84.35
Neigh   | 0          | 0          | 0          |   0.0 |  0.00
Comm    | 0.00014242 | 0.00014242 | 0.00014242 |   0.0 |  1.42
Output  | 0          | 0          | 0          |   0.0 |  0.00
Modify  | 0.0010969  | 0.0010969  | 0.0010969  |   0.0 | 10.95
Other   |            | 0.000329   |            |       |  3.28

Nlocal:           1025 ave        1025 max        1025 min
Histogram: 1 0 0 0 0 0 0 0 0 0
Nghost:           2901 ave        2901 max        2901 min
Histogram: 1 0 0 0 0 0 0 0 0 0
Neighs:          34411 ave       34411 max       34411 min
Histogram: 1 0 0 0 0 0 0 0 0 0

Total # of neighbors = 34411
Ave neighs/atom = 33.571707
Neighbor list builds = 0
Dangerous builds = 0
Total wall time: 0:00:00
