LAMMPS (2 Aug 2023)
Processor partition = 4
Reading data file ...
  orthogonal box = (0.082000027 0.082000068 -15.828637) to (37.648652 37.648652 53.559289)
  1 by 1 by 1 MPI processor grid
  reading atoms ...
  3601 atoms
  reading velocities ...
  3601 velocities
  read_data CPU = 0.013 seconds
WARNING: No fixes with time integration, atoms won't move (src/verlet.cpp:60)
Neighbor list info ...
  update: every = 1 steps, delay = 0 steps, check = yes
  max neighbors/atom: 2000, page size: 100000
  master list distance cutoff = 6.8513889
  ghost atom cutoff = 6.8513889
  binsize = 3.4256945, bins = 11 11 21
  1 neighbor lists, perpetual/occasional/extra = 1 0 0
  (1) pair eam/alloy, perpetual
      attributes: half, newton on
      pair build: half/bin/atomonly/newton
      stencil: half/bin/3d
      bin: standard
Setting up Verlet run ...
  Unit style    : metal
  Current step  : 0
  Time step     : 0.001
Per MPI rank memory allocation (min/avg/max) = 3.791 | 3.791 | 3.791 Mbytes
   Step          Temp          E_pair         E_mol          TotEng         Press     
         0   0             -31517.304      0             -31517.304     -0.080910212  
Loop time of 4.17e-07 on 1 procs for 0 steps with 3601 atoms

239.8% CPU use with 1 MPI tasks x no OpenMP threads

MPI task timing breakdown:
Section |  min time  |  avg time  |  max time  |%varavg| %total
---------------------------------------------------------------
Pair    | 0          | 0          | 0          |   0.0 |  0.00
Neigh   | 0          | 0          | 0          |   0.0 |  0.00
Comm    | 0          | 0          | 0          |   0.0 |  0.00
Output  | 0          | 0          | 0          |   0.0 |  0.00
Modify  | 0          | 0          | 0          |   0.0 |  0.00
Other   |            | 4.17e-07   |            |       |100.00

Nlocal:           3601 ave        3601 max        3601 min
Histogram: 1 0 0 0 0 0 0 0 0 0
Nghost:           3229 ave        3229 max        3229 min
Histogram: 1 0 0 0 0 0 0 0 0 0
Neighs:         147769 ave      147769 max      147769 min
Histogram: 1 0 0 0 0 0 0 0 0 0

Total # of neighbors = 147769
Ave neighs/atom = 41.035546
Neighbor list builds = 0
Dangerous builds = 0
Setting up quickmin style minimization ...
  Unit style    : metal
  Current step  : 0
Per MPI rank memory allocation (min/avg/max) = 3.791 | 3.791 | 3.791 Mbytes
   Step          Temp          E_pair         E_mol          TotEng         Press     
         0   0             -31498.789      0             -31498.789      413.84171    
        39   0.034045439   -31510.319      0             -31510.303      169.07238    
Loop time of 0.0824809 on 1 procs for 39 steps with 3601 atoms

99.2% CPU use with 1 MPI tasks x no OpenMP threads

Minimization stats:
  Stopping criterion = energy tolerance
  Energy initial, next-to-last, final = 
      -31498.788525862   -31510.318629427  -31510.3186923025
  Force two-norm initial, final = 55.500563 0.24658273
  Force max component initial, final = 41.811094 0.19776925
  Final line search alpha, max atom move = 0 0
  Iterations, force evaluations = 39 39

MPI task timing breakdown:
Section |  min time  |  avg time  |  max time  |%varavg| %total
---------------------------------------------------------------
Pair    | 0.06926    | 0.06926    | 0.06926    |   0.0 | 83.97
Neigh   | 0          | 0          | 0          |   0.0 |  0.00
Comm    | 0.00036304 | 0.00036304 | 0.00036304 |   0.0 |  0.44
Output  | 0          | 0          | 0          |   0.0 |  0.00
Modify  | 0.010128   | 0.010128   | 0.010128   |   0.0 | 12.28
Other   |            | 0.00273    |            |       |  3.31

Nlocal:           3601 ave        3601 max        3601 min
Histogram: 1 0 0 0 0 0 0 0 0 0
Nghost:           3229 ave        3229 max        3229 min
Histogram: 1 0 0 0 0 0 0 0 0 0
Neighs:         146782 ave      146782 max      146782 min
Histogram: 1 0 0 0 0 0 0 0 0 0

Total # of neighbors = 146782
Ave neighs/atom = 40.761455
Neighbor list builds = 0
Dangerous builds = 0
Setting up quickmin style minimization ...
  Unit style    : metal
  Current step  : 39
Per MPI rank memory allocation (min/avg/max) = 3.791 | 3.791 | 3.791 Mbytes
   Step          Temp          E_pair         E_mol          TotEng         Press     
        39   0             -31510.319      0             -31510.319      168.89958    
       100   0.1208487     -31510.324      0             -31510.268      161.01394    
       141   0.0092847931  -31510.325      0             -31510.321      159.9758     
Loop time of 0.204317 on 1 procs for 102 steps with 3601 atoms

99.8% CPU use with 1 MPI tasks x no OpenMP threads

Minimization stats:
  Stopping criterion = energy tolerance
  Energy initial, next-to-last, final = 
     -31510.3186923025  -31510.3248331069  -31510.3248209298
  Force two-norm initial, final = 0.24658273 0.27443936
  Force max component initial, final = 0.19776925 0.22285934
  Final line search alpha, max atom move = 0 0
  Iterations, force evaluations = 102 102

MPI task timing breakdown:
Section |  min time  |  avg time  |  max time  |%varavg| %total
---------------------------------------------------------------
Pair    | 0.17237    | 0.17237    | 0.17237    |   0.0 | 84.36
Neigh   | 0          | 0          | 0          |   0.0 |  0.00
Comm    | 0.00090387 | 0.00090387 | 0.00090387 |   0.0 |  0.44
Output  | 9.083e-06  | 9.083e-06  | 9.083e-06  |   0.0 |  0.00
Modify  | 0.023519   | 0.023519   | 0.023519   |   0.0 | 11.51
Other   |            | 0.007515   |            |       |  3.68

Nlocal:           3601 ave        3601 max        3601 min
Histogram: 1 0 0 0 0 0 0 0 0 0
Nghost:           3229 ave        3229 max        3229 min
Histogram: 1 0 0 0 0 0 0 0 0 0
Neighs:         146801 ave      146801 max      146801 min
Histogram: 1 0 0 0 0 0 0 0 0 0

Total # of neighbors = 146801
Ave neighs/atom = 40.766731
Neighbor list builds = 0
Dangerous builds = 0
Total wall time: 0:00:00
