LAMMPS (2 Aug 2023)
Processor partition = 5
Reading data file ...
  orthogonal box = (0.0023004304 -0.0095997436 -0.005064594) to (54.457205 51.354514 44.471064)
  1 by 1 by 1 MPI processor grid
  reading atoms ...
  8001 atoms
  reading velocities ...
  8001 velocities
  read_data CPU = 0.031 seconds
WARNING: No fixes with time integration, atoms won't move (src/verlet.cpp:60)
Neighbor list info ...
  update: every = 1 steps, delay = 0 steps, check = yes
  max neighbors/atom: 2000, page size: 100000
  master list distance cutoff = 6.8513889
  ghost atom cutoff = 6.8513889
  binsize = 3.4256945, bins = 16 15 13
  1 neighbor lists, perpetual/occasional/extra = 1 0 0
  (1) pair eam/alloy, perpetual
      attributes: half, newton on
      pair build: half/bin/atomonly/newton
      stencil: half/bin/3d
      bin: standard
Setting up Verlet run ...
  Unit style    : metal
  Current step  : 0
  Time step     : 0.001
Per MPI rank memory allocation (min/avg/max) = 7.397 | 7.397 | 7.397 Mbytes
   Step          Temp          E_pair         E_mol          TotEng         Press     
         0   0             -71571.216      0             -71571.216      127.26961    
Loop time of 5e-07 on 1 procs for 0 steps with 8001 atoms

0.0% CPU use with 1 MPI tasks x no OpenMP threads

MPI task timing breakdown:
Section |  min time  |  avg time  |  max time  |%varavg| %total
---------------------------------------------------------------
Pair    | 0          | 0          | 0          |   0.0 |  0.00
Neigh   | 0          | 0          | 0          |   0.0 |  0.00
Comm    | 0          | 0          | 0          |   0.0 |  0.00
Output  | 0          | 0          | 0          |   0.0 |  0.00
Modify  | 0          | 0          | 0          |   0.0 |  0.00
Other   |            | 5e-07      |            |       |100.00

Nlocal:           8001 ave        8001 max        8001 min
Histogram: 1 0 0 0 0 0 0 0 0 0
Nghost:           9280 ave        9280 max        9280 min
Histogram: 1 0 0 0 0 0 0 0 0 0
Neighs:         318089 ave      318089 max      318089 min
Histogram: 1 0 0 0 0 0 0 0 0 0

Total # of neighbors = 318089
Ave neighs/atom = 39.756155
Neighbor list builds = 0
Dangerous builds = 0
Setting up quickmin style minimization ...
  Unit style    : metal
  Current step  : 0
Per MPI rank memory allocation (min/avg/max) = 7.397 | 7.397 | 7.397 Mbytes
   Step          Temp          E_pair         E_mol          TotEng         Press     
         0   0             -71492.947      0             -71492.947      1299.0218    
        19   0.063585242   -71571.19       0             -71571.124      131.99481    
Loop time of 0.22231 on 1 procs for 19 steps with 8001 atoms

96.3% CPU use with 1 MPI tasks x no OpenMP threads

Minimization stats:
  Stopping criterion = energy tolerance
  Energy initial, next-to-last, final = 
     -71492.9474310959  -71571.1888624411  -71571.1897556929
  Force two-norm initial, final = 462.19713 0.27420182
  Force max component initial, final = 247.84367 0.11829341
  Final line search alpha, max atom move = 0 0
  Iterations, force evaluations = 19 19

MPI task timing breakdown:
Section |  min time  |  avg time  |  max time  |%varavg| %total
---------------------------------------------------------------
Pair    | 0.13026    | 0.13026    | 0.13026    |   0.0 | 58.60
Neigh   | 0          | 0          | 0          |   0.0 |  0.00
Comm    | 0.0010727  | 0.0010727  | 0.0010727  |   0.0 |  0.48
Output  | 0          | 0          | 0          |   0.0 |  0.00
Modify  | 0.078593   | 0.078593   | 0.078593   |   0.0 | 35.35
Other   |            | 0.01238    |            |       |  5.57

Nlocal:           8001 ave        8001 max        8001 min
Histogram: 1 0 0 0 0 0 0 0 0 0
Nghost:           9280 ave        9280 max        9280 min
Histogram: 1 0 0 0 0 0 0 0 0 0
Neighs:         318069 ave      318069 max      318069 min
Histogram: 1 0 0 0 0 0 0 0 0 0

Total # of neighbors = 318069
Ave neighs/atom = 39.753656
Neighbor list builds = 0
Dangerous builds = 0
Setting up quickmin style minimization ...
  Unit style    : metal
  Current step  : 19
Per MPI rank memory allocation (min/avg/max) = 7.397 | 7.397 | 7.397 Mbytes
   Step          Temp          E_pair         E_mol          TotEng         Press     
        19   0             -71571.19       0             -71571.19       131.43026    
        25   0.024363444   -71571.191      0             -71571.166      131.33612    
Loop time of 0.0780037 on 1 procs for 6 steps with 8001 atoms

96.8% CPU use with 1 MPI tasks x no OpenMP threads

Minimization stats:
  Stopping criterion = energy tolerance
  Energy initial, next-to-last, final = 
      -71571.189755693  -71571.1908144218  -71571.1913307557
  Force two-norm initial, final = 0.27420182 0.25732502
  Force max component initial, final = 0.11829341 0.10871279
  Final line search alpha, max atom move = 0 0
  Iterations, force evaluations = 6 6

MPI task timing breakdown:
Section |  min time  |  avg time  |  max time  |%varavg| %total
---------------------------------------------------------------
Pair    | 0.044576   | 0.044576   | 0.044576   |   0.0 | 57.15
Neigh   | 0          | 0          | 0          |   0.0 |  0.00
Comm    | 0.00037417 | 0.00037417 | 0.00037417 |   0.0 |  0.48
Output  | 0          | 0          | 0          |   0.0 |  0.00
Modify  | 0.030446   | 0.030446   | 0.030446   |   0.0 | 39.03
Other   |            | 0.002607   |            |       |  3.34

Nlocal:           8001 ave        8001 max        8001 min
Histogram: 1 0 0 0 0 0 0 0 0 0
Nghost:           9280 ave        9280 max        9280 min
Histogram: 1 0 0 0 0 0 0 0 0 0
Neighs:         318156 ave      318156 max      318156 min
Histogram: 1 0 0 0 0 0 0 0 0 0

Total # of neighbors = 318156
Ave neighs/atom = 39.764529
Neighbor list builds = 0
Dangerous builds = 0
Total wall time: 0:00:00
