LAMMPS (2 Aug 2023)
Processor partition = 4
Reading data file ...
  orthogonal box = (0.0022980543 -0.0096010385 -0.005062638) to (54.457207 51.354515 44.471062)
  1 by 1 by 1 MPI processor grid
  reading atoms ...
  8001 atoms
  reading velocities ...
  8001 velocities
  read_data CPU = 0.019 seconds
WARNING: No fixes with time integration, atoms won't move (src/verlet.cpp:60)
Neighbor list info ...
  update: every = 1 steps, delay = 0 steps, check = yes
  max neighbors/atom: 2000, page size: 100000
  master list distance cutoff = 6.8513889
  ghost atom cutoff = 6.8513889
  binsize = 3.4256945, bins = 16 15 13
  1 neighbor lists, perpetual/occasional/extra = 1 0 0
  (1) pair eam/alloy, perpetual
      attributes: half, newton on
      pair build: half/bin/atomonly/newton
      stencil: half/bin/3d
      bin: standard
Setting up Verlet run ...
  Unit style    : metal
  Current step  : 0
  Time step     : 0.001
Per MPI rank memory allocation (min/avg/max) = 7.397 | 7.397 | 7.397 Mbytes
   Step          Temp          E_pair         E_mol          TotEng         Press     
         0   0             -71571.216      0             -71571.216      127.09315    
Loop time of 5.83e-07 on 1 procs for 0 steps with 8001 atoms

0.0% CPU use with 1 MPI tasks x no OpenMP threads

MPI task timing breakdown:
Section |  min time  |  avg time  |  max time  |%varavg| %total
---------------------------------------------------------------
Pair    | 0          | 0          | 0          |   0.0 |  0.00
Neigh   | 0          | 0          | 0          |   0.0 |  0.00
Comm    | 0          | 0          | 0          |   0.0 |  0.00
Output  | 0          | 0          | 0          |   0.0 |  0.00
Modify  | 0          | 0          | 0          |   0.0 |  0.00
Other   |            | 5.83e-07   |            |       |100.00

Nlocal:           8001 ave        8001 max        8001 min
Histogram: 1 0 0 0 0 0 0 0 0 0
Nghost:           9280 ave        9280 max        9280 min
Histogram: 1 0 0 0 0 0 0 0 0 0
Neighs:         318088 ave      318088 max      318088 min
Histogram: 1 0 0 0 0 0 0 0 0 0

Total # of neighbors = 318088
Ave neighs/atom = 39.75603
Neighbor list builds = 0
Dangerous builds = 0
Setting up quickmin style minimization ...
  Unit style    : metal
  Current step  : 0
Per MPI rank memory allocation (min/avg/max) = 7.397 | 7.397 | 7.397 Mbytes
   Step          Temp          E_pair         E_mol          TotEng         Press     
         0   0             -71418.521      0             -71418.521      2187.2906    
        19   0.65713206    -71570.945      0             -71570.266      150.32131    
Loop time of 0.227492 on 1 procs for 19 steps with 8001 atoms

93.6% CPU use with 1 MPI tasks x no OpenMP threads

Minimization stats:
  Stopping criterion = energy tolerance
  Energy initial, next-to-last, final = 
     -71418.5214666188  -71570.9396660007  -71570.9453307534
  Force two-norm initial, final = 1085.6201 0.57293844
  Force max component initial, final = 641.51543 0.38508928
  Final line search alpha, max atom move = 0 0
  Iterations, force evaluations = 19 19

MPI task timing breakdown:
Section |  min time  |  avg time  |  max time  |%varavg| %total
---------------------------------------------------------------
Pair    | 0.1121     | 0.1121     | 0.1121     |   0.0 | 49.28
Neigh   | 0          | 0          | 0          |   0.0 |  0.00
Comm    | 0.0011423  | 0.0011423  | 0.0011423  |   0.0 |  0.50
Output  | 0          | 0          | 0          |   0.0 |  0.00
Modify  | 0.10083    | 0.10083    | 0.10083    |   0.0 | 44.32
Other   |            | 0.01342    |            |       |  5.90

Nlocal:           8001 ave        8001 max        8001 min
Histogram: 1 0 0 0 0 0 0 0 0 0
Nghost:           9280 ave        9280 max        9280 min
Histogram: 1 0 0 0 0 0 0 0 0 0
Neighs:         318090 ave      318090 max      318090 min
Histogram: 1 0 0 0 0 0 0 0 0 0

Total # of neighbors = 318090
Ave neighs/atom = 39.75628
Neighbor list builds = 0
Dangerous builds = 0
Setting up quickmin style minimization ...
  Unit style    : metal
  Current step  : 19
Per MPI rank memory allocation (min/avg/max) = 7.397 | 7.397 | 7.397 Mbytes
   Step          Temp          E_pair         E_mol          TotEng         Press     
        19   0             -71570.945      0             -71570.945      144.48682    
        25   0.094019372   -71570.951      0             -71570.854      145.47017    
Loop time of 0.0731639 on 1 procs for 6 steps with 8001 atoms

95.9% CPU use with 1 MPI tasks x no OpenMP threads

Minimization stats:
  Stopping criterion = energy tolerance
  Energy initial, next-to-last, final = 
     -71570.9453307534  -71570.9493111922  -71570.9510361597
  Force two-norm initial, final = 0.57293844 0.46948559
  Force max component initial, final = 0.38508928 0.24415956
  Final line search alpha, max atom move = 0 0
  Iterations, force evaluations = 6 6

MPI task timing breakdown:
Section |  min time  |  avg time  |  max time  |%varavg| %total
---------------------------------------------------------------
Pair    | 0.034319   | 0.034319   | 0.034319   |   0.0 | 46.91
Neigh   | 0          | 0          | 0          |   0.0 |  0.00
Comm    | 0.00029588 | 0.00029588 | 0.00029588 |   0.0 |  0.40
Output  | 0          | 0          | 0          |   0.0 |  0.00
Modify  | 0.035309   | 0.035309   | 0.035309   |   0.0 | 48.26
Other   |            | 0.00324    |            |       |  4.43

Nlocal:           8001 ave        8001 max        8001 min
Histogram: 1 0 0 0 0 0 0 0 0 0
Nghost:           9280 ave        9280 max        9280 min
Histogram: 1 0 0 0 0 0 0 0 0 0
Neighs:         318220 ave      318220 max      318220 min
Histogram: 1 0 0 0 0 0 0 0 0 0

Total # of neighbors = 318220
Ave neighs/atom = 39.772528
Neighbor list builds = 0
Dangerous builds = 0
Total wall time: 0:00:00
