LAMMPS (2 Aug 2023)
Processor partition = 3
Reading data file ...
  orthogonal box = (-1.1862975e-06 -1.1862975e-06 -1.1862975e-06) to (25.153769 25.153769 25.153769)
  1 by 1 by 1 MPI processor grid
  reading atoms ...
  1025 atoms
  reading velocities ...
  1025 velocities
  read_data CPU = 0.013 seconds
WARNING: No fixes with time integration, atoms won't move (src/verlet.cpp:60)
Neighbor list info ...
  update: every = 1 steps, delay = 0 steps, check = yes
  max neighbors/atom: 2000, page size: 100000
  master list distance cutoff = 6.8513889
  ghost atom cutoff = 6.8513889
  binsize = 3.4256945, bins = 8 8 8
  1 neighbor lists, perpetual/occasional/extra = 1 0 0
  (1) pair eam/alloy, perpetual
      attributes: half, newton on
      pair build: half/bin/atomonly/newton
      stencil: half/bin/3d
      bin: standard
Setting up Verlet run ...
  Unit style    : metal
  Current step  : 0
  Time step     : 0.001
Per MPI rank memory allocation (min/avg/max) = 3.324 | 3.324 | 3.324 Mbytes
   Step          Temp          E_pair         E_mol          TotEng         Press     
         0   0             -9157.7438      0             -9157.7438      1707.327     
Loop time of 8.75e-07 on 1 procs for 0 steps with 1025 atoms

114.3% CPU use with 1 MPI tasks x no OpenMP threads

MPI task timing breakdown:
Section |  min time  |  avg time  |  max time  |%varavg| %total
---------------------------------------------------------------
Pair    | 0          | 0          | 0          |   0.0 |  0.00
Neigh   | 0          | 0          | 0          |   0.0 |  0.00
Comm    | 0          | 0          | 0          |   0.0 |  0.00
Output  | 0          | 0          | 0          |   0.0 |  0.00
Modify  | 0          | 0          | 0          |   0.0 |  0.00
Other   |            | 8.75e-07   |            |       |100.00

Nlocal:           1025 ave        1025 max        1025 min
Histogram: 1 0 0 0 0 0 0 0 0 0
Nghost:           2901 ave        2901 max        2901 min
Histogram: 1 0 0 0 0 0 0 0 0 0
Neighs:          35732 ave       35732 max       35732 min
Histogram: 1 0 0 0 0 0 0 0 0 0

Total # of neighbors = 35732
Ave neighs/atom = 34.860488
Neighbor list builds = 0
Dangerous builds = 0
Setting up quickmin style minimization ...
  Unit style    : metal
  Current step  : 0
Per MPI rank memory allocation (min/avg/max) = 3.324 | 3.324 | 3.324 Mbytes
   Step          Temp          E_pair         E_mol          TotEng         Press     
         0   0             -9157.1853      0             -9157.1853      1812.7526    
        31   0.17173169    -9157.5945      0             -9157.5718      1575.4805    
Loop time of 0.0569303 on 1 procs for 31 steps with 1025 atoms

86.9% CPU use with 1 MPI tasks x no OpenMP threads

Minimization stats:
  Stopping criterion = energy tolerance
  Energy initial, next-to-last, final = 
     -9157.18531808264  -9157.59384730886   -9157.5945061853
  Force two-norm initial, final = 4.6580384 0.41200023
  Force max component initial, final = 2.0004464 0.16967579
  Final line search alpha, max atom move = 0 0
  Iterations, force evaluations = 31 31

MPI task timing breakdown:
Section |  min time  |  avg time  |  max time  |%varavg| %total
---------------------------------------------------------------
Pair    | 0.026361   | 0.026361   | 0.026361   |   0.0 | 46.30
Neigh   | 0          | 0          | 0          |   0.0 |  0.00
Comm    | 0.00034187 | 0.00034187 | 0.00034187 |   0.0 |  0.60
Output  | 0          | 0          | 0          |   0.0 |  0.00
Modify  | 0.024601   | 0.024601   | 0.024601   |   0.0 | 43.21
Other   |            | 0.005626   |            |       |  9.88

Nlocal:           1025 ave        1025 max        1025 min
Histogram: 1 0 0 0 0 0 0 0 0 0
Nghost:           2901 ave        2901 max        2901 min
Histogram: 1 0 0 0 0 0 0 0 0 0
Neighs:          35651 ave       35651 max       35651 min
Histogram: 1 0 0 0 0 0 0 0 0 0

Total # of neighbors = 35651
Ave neighs/atom = 34.781463
Neighbor list builds = 0
Dangerous builds = 0
Setting up quickmin style minimization ...
  Unit style    : metal
  Current step  : 31
Per MPI rank memory allocation (min/avg/max) = 3.324 | 3.324 | 3.324 Mbytes
   Step          Temp          E_pair         E_mol          TotEng         Press     
        31   0             -9157.5945      0             -9157.5945      1573.955     
        37   0.032153666   -9157.5954      0             -9157.5912      1573.3312    
Loop time of 0.0103978 on 1 procs for 6 steps with 1025 atoms

95.9% CPU use with 1 MPI tasks x no OpenMP threads

Minimization stats:
  Stopping criterion = energy tolerance
  Energy initial, next-to-last, final = 
      -9157.5945061853   -9157.5951370984  -9157.59540867181
  Force two-norm initial, final = 0.41200023 0.4002347
  Force max component initial, final = 0.16967579 0.16312629
  Final line search alpha, max atom move = 0 0
  Iterations, force evaluations = 6 6

MPI task timing breakdown:
Section |  min time  |  avg time  |  max time  |%varavg| %total
---------------------------------------------------------------
Pair    | 0.0065876  | 0.0065876  | 0.0065876  |   0.0 | 63.36
Neigh   | 0          | 0          | 0          |   0.0 |  0.00
Comm    | 0.00011183 | 0.00011183 | 0.00011183 |   0.0 |  1.08
Output  | 0          | 0          | 0          |   0.0 |  0.00
Modify  | 0.003339   | 0.003339   | 0.003339   |   0.0 | 32.11
Other   |            | 0.0003594  |            |       |  3.46

Nlocal:           1025 ave        1025 max        1025 min
Histogram: 1 0 0 0 0 0 0 0 0 0
Nghost:           2901 ave        2901 max        2901 min
Histogram: 1 0 0 0 0 0 0 0 0 0
Neighs:          35630 ave       35630 max       35630 min
Histogram: 1 0 0 0 0 0 0 0 0 0

Total # of neighbors = 35630
Ave neighs/atom = 34.760976
Neighbor list builds = 0
Dangerous builds = 0
Total wall time: 0:00:00
