LAMMPS (2 Aug 2023)
Processor partition = 8
Reading data file ...
  orthogonal box = (0.0022980543 -0.0096010385 -0.005062638) to (54.457207 51.354515 44.471062)
  1 by 1 by 1 MPI processor grid
  reading atoms ...
  8001 atoms
  reading velocities ...
  8001 velocities
  read_data CPU = 0.019 seconds
WARNING: No fixes with time integration, atoms won't move (src/verlet.cpp:60)
Neighbor list info ...
  update: every = 1 steps, delay = 0 steps, check = yes
  max neighbors/atom: 2000, page size: 100000
  master list distance cutoff = 6.8513889
  ghost atom cutoff = 6.8513889
  binsize = 3.4256945, bins = 16 15 13
  1 neighbor lists, perpetual/occasional/extra = 1 0 0
  (1) pair eam/alloy, perpetual
      attributes: half, newton on
      pair build: half/bin/atomonly/newton
      stencil: half/bin/3d
      bin: standard
Setting up Verlet run ...
  Unit style    : metal
  Current step  : 0
  Time step     : 0.001
Per MPI rank memory allocation (min/avg/max) = 7.397 | 7.397 | 7.397 Mbytes
   Step          Temp          E_pair         E_mol          TotEng         Press     
         0   0             -71571.216      0             -71571.216      127.09315    
Loop time of 3.33e-07 on 1 procs for 0 steps with 8001 atoms

0.0% CPU use with 1 MPI tasks x no OpenMP threads

MPI task timing breakdown:
Section |  min time  |  avg time  |  max time  |%varavg| %total
---------------------------------------------------------------
Pair    | 0          | 0          | 0          |   0.0 |  0.00
Neigh   | 0          | 0          | 0          |   0.0 |  0.00
Comm    | 0          | 0          | 0          |   0.0 |  0.00
Output  | 0          | 0          | 0          |   0.0 |  0.00
Modify  | 0          | 0          | 0          |   0.0 |  0.00
Other   |            | 3.33e-07   |            |       |100.00

Nlocal:           8001 ave        8001 max        8001 min
Histogram: 1 0 0 0 0 0 0 0 0 0
Nghost:           9280 ave        9280 max        9280 min
Histogram: 1 0 0 0 0 0 0 0 0 0
Neighs:         318088 ave      318088 max      318088 min
Histogram: 1 0 0 0 0 0 0 0 0 0

Total # of neighbors = 318088
Ave neighs/atom = 39.75603
Neighbor list builds = 0
Dangerous builds = 0
Setting up quickmin style minimization ...
  Unit style    : metal
  Current step  : 0
Per MPI rank memory allocation (min/avg/max) = 7.397 | 7.397 | 7.397 Mbytes
   Step          Temp          E_pair         E_mol          TotEng         Press     
         0   0             -71571.216      0             -71571.216      127.11146    
        19   5.2866426e-07 -71571.216      0             -71571.216      127.09385    
Loop time of 0.227358 on 1 procs for 19 steps with 8001 atoms

94.5% CPU use with 1 MPI tasks x no OpenMP threads

Minimization stats:
  Stopping criterion = energy tolerance
  Energy initial, next-to-last, final = 
     -71571.2160008955  -71571.2161553679  -71571.2161553716
  Force two-norm initial, final = 0.089862699 0.00070214718
  Force max component initial, final = 0.0019718664 3.2767395e-05
  Final line search alpha, max atom move = 0 0
  Iterations, force evaluations = 19 19

MPI task timing breakdown:
Section |  min time  |  avg time  |  max time  |%varavg| %total
---------------------------------------------------------------
Pair    | 0.10799    | 0.10799    | 0.10799    |   0.0 | 47.50
Neigh   | 0          | 0          | 0          |   0.0 |  0.00
Comm    | 0.00095692 | 0.00095692 | 0.00095692 |   0.0 |  0.42
Output  | 0          | 0          | 0          |   0.0 |  0.00
Modify  | 0.071115   | 0.071115   | 0.071115   |   0.0 | 31.28
Other   |            | 0.0473     |            |       | 20.80

Nlocal:           8001 ave        8001 max        8001 min
Histogram: 1 0 0 0 0 0 0 0 0 0
Nghost:           9280 ave        9280 max        9280 min
Histogram: 1 0 0 0 0 0 0 0 0 0
Neighs:         318005 ave      318005 max      318005 min
Histogram: 1 0 0 0 0 0 0 0 0 0

Total # of neighbors = 318005
Ave neighs/atom = 39.745657
Neighbor list builds = 0
Dangerous builds = 0
Setting up quickmin style minimization ...
  Unit style    : metal
  Current step  : 19
Per MPI rank memory allocation (min/avg/max) = 7.397 | 7.397 | 7.397 Mbytes
   Step          Temp          E_pair         E_mol          TotEng         Press     
        19   0             -71571.216      0             -71571.216      127.09384    
        25   2.3325047e-07 -71571.216      0             -71571.216      127.09383    
Loop time of 0.0731628 on 1 procs for 6 steps with 8001 atoms

97.3% CPU use with 1 MPI tasks x no OpenMP threads

Minimization stats:
  Stopping criterion = energy tolerance
  Energy initial, next-to-last, final = 
     -71571.2161553716  -71571.2161553828  -71571.2161553834
  Force two-norm initial, final = 0.00070214718 0.00066441156
  Force max component initial, final = 3.2767395e-05 3.112352e-05
  Final line search alpha, max atom move = 0 0
  Iterations, force evaluations = 6 6

MPI task timing breakdown:
Section |  min time  |  avg time  |  max time  |%varavg| %total
---------------------------------------------------------------
Pair    | 0.03649    | 0.03649    | 0.03649    |   0.0 | 49.88
Neigh   | 0          | 0          | 0          |   0.0 |  0.00
Comm    | 0.00027604 | 0.00027604 | 0.00027604 |   0.0 |  0.38
Output  | 0          | 0          | 0          |   0.0 |  0.00
Modify  | 0.027152   | 0.027152   | 0.027152   |   0.0 | 37.11
Other   |            | 0.009244   |            |       | 12.64

Nlocal:           8001 ave        8001 max        8001 min
Histogram: 1 0 0 0 0 0 0 0 0 0
Nghost:           9280 ave        9280 max        9280 min
Histogram: 1 0 0 0 0 0 0 0 0 0
Neighs:         318081 ave      318081 max      318081 min
Histogram: 1 0 0 0 0 0 0 0 0 0

Total # of neighbors = 318081
Ave neighs/atom = 39.755156
Neighbor list builds = 0
Dangerous builds = 0
Total wall time: 0:00:00
