LAMMPS (2 Aug 2023)
Processor partition = 2
Reading data file ...
  orthogonal box = (-0.0023797147 -0.0023645006 -0.0022710563) to (25.156148 25.156133 25.156039)
  1 by 1 by 1 MPI processor grid
  reading atoms ...
  1025 atoms
  reading velocities ...
  1025 velocities
  read_data CPU = 0.011 seconds
WARNING: No fixes with time integration, atoms won't move (src/verlet.cpp:60)
Neighbor list info ...
  update: every = 1 steps, delay = 0 steps, check = yes
  max neighbors/atom: 2000, page size: 100000
  master list distance cutoff = 6.8513889
  ghost atom cutoff = 6.8513889
  binsize = 3.4256945, bins = 8 8 8
  1 neighbor lists, perpetual/occasional/extra = 1 0 0
  (1) pair eam/alloy, perpetual
      attributes: half, newton on
      pair build: half/bin/atomonly/newton
      stencil: half/bin/3d
      bin: standard
Setting up Verlet run ...
  Unit style    : metal
  Current step  : 0
  Time step     : 0.001
Per MPI rank memory allocation (min/avg/max) = 3.324 | 3.324 | 3.324 Mbytes
   Step          Temp          E_pair         E_mol          TotEng         Press     
         0   0             -9157.7484      0             -9157.7484     -13.790055    
Loop time of 5.42e-07 on 1 procs for 0 steps with 1025 atoms

0.0% CPU use with 1 MPI tasks x no OpenMP threads

MPI task timing breakdown:
Section |  min time  |  avg time  |  max time  |%varavg| %total
---------------------------------------------------------------
Pair    | 0          | 0          | 0          |   0.0 |  0.00
Neigh   | 0          | 0          | 0          |   0.0 |  0.00
Comm    | 0          | 0          | 0          |   0.0 |  0.00
Output  | 0          | 0          | 0          |   0.0 |  0.00
Modify  | 0          | 0          | 0          |   0.0 |  0.00
Other   |            | 5.42e-07   |            |       |100.00

Nlocal:           1025 ave        1025 max        1025 min
Histogram: 1 0 0 0 0 0 0 0 0 0
Nghost:           2901 ave        2901 max        2901 min
Histogram: 1 0 0 0 0 0 0 0 0 0
Neighs:          34016 ave       34016 max       34016 min
Histogram: 1 0 0 0 0 0 0 0 0 0

Total # of neighbors = 34016
Ave neighs/atom = 33.186341
Neighbor list builds = 0
Dangerous builds = 0
Setting up quickmin style minimization ...
  Unit style    : metal
  Current step  : 0
Per MPI rank memory allocation (min/avg/max) = 3.324 | 3.324 | 3.324 Mbytes
   Step          Temp          E_pair         E_mol          TotEng         Press     
         0   0             -9157.3817      0             -9157.3817      121.48108    
        31   0.11499666    -9157.6569      0             -9157.6417     -101.16484    
Loop time of 0.0481777 on 1 procs for 31 steps with 1025 atoms

94.6% CPU use with 1 MPI tasks x no OpenMP threads

Minimization stats:
  Stopping criterion = energy tolerance
  Energy initial, next-to-last, final = 
      -9157.3816956215  -9157.65642213356   -9157.6568883856
  Force two-norm initial, final = 3.8920449 0.35944834
  Force max component initial, final = 1.7403701 0.15593953
  Final line search alpha, max atom move = 0 0
  Iterations, force evaluations = 31 31

MPI task timing breakdown:
Section |  min time  |  avg time  |  max time  |%varavg| %total
---------------------------------------------------------------
Pair    | 0.029091   | 0.029091   | 0.029091   |   0.0 | 60.38
Neigh   | 0          | 0          | 0          |   0.0 |  0.00
Comm    | 0.00049962 | 0.00049962 | 0.00049962 |   0.0 |  1.04
Output  | 0          | 0          | 0          |   0.0 |  0.00
Modify  | 0.014447   | 0.014447   | 0.014447   |   0.0 | 29.99
Other   |            | 0.00414    |            |       |  8.59

Nlocal:           1025 ave        1025 max        1025 min
Histogram: 1 0 0 0 0 0 0 0 0 0
Nghost:           2901 ave        2901 max        2901 min
Histogram: 1 0 0 0 0 0 0 0 0 0
Neighs:          33970 ave       33970 max       33970 min
Histogram: 1 0 0 0 0 0 0 0 0 0

Total # of neighbors = 33970
Ave neighs/atom = 33.141463
Neighbor list builds = 0
Dangerous builds = 0
Setting up quickmin style minimization ...
  Unit style    : metal
  Current step  : 31
Per MPI rank memory allocation (min/avg/max) = 3.324 | 3.324 | 3.324 Mbytes
   Step          Temp          E_pair         E_mol          TotEng         Press     
        31   0             -9157.6569      0             -9157.6569     -102.18582    
        37   0.031856698   -9157.6576      0             -9157.6534     -98.617376    
Loop time of 0.0118191 on 1 procs for 6 steps with 1025 atoms

100.0% CPU use with 1 MPI tasks x no OpenMP threads

Minimization stats:
  Stopping criterion = energy tolerance
  Energy initial, next-to-last, final = 
      -9157.6568883856  -9157.65741801762  -9157.65763715178
  Force two-norm initial, final = 0.35944834 0.32117643
  Force max component initial, final = 0.15593953 0.11569773
  Final line search alpha, max atom move = 0 0
  Iterations, force evaluations = 6 6

MPI task timing breakdown:
Section |  min time  |  avg time  |  max time  |%varavg| %total
---------------------------------------------------------------
Pair    | 0.0043856  | 0.0043856  | 0.0043856  |   0.0 | 37.11
Neigh   | 0          | 0          | 0          |   0.0 |  0.00
Comm    | 6.3871e-05 | 6.3871e-05 | 6.3871e-05 |   0.0 |  0.54
Output  | 0          | 0          | 0          |   0.0 |  0.00
Modify  | 0.0067921  | 0.0067921  | 0.0067921  |   0.0 | 57.47
Other   |            | 0.0005775  |            |       |  4.89

Nlocal:           1025 ave        1025 max        1025 min
Histogram: 1 0 0 0 0 0 0 0 0 0
Nghost:           2901 ave        2901 max        2901 min
Histogram: 1 0 0 0 0 0 0 0 0 0
Neighs:          33958 ave       33958 max       33958 min
Histogram: 1 0 0 0 0 0 0 0 0 0

Total # of neighbors = 33958
Ave neighs/atom = 33.129756
Neighbor list builds = 0
Dangerous builds = 0
Total wall time: 0:00:00
