LAMMPS (2 Aug 2023)
Processor partition = 4
Reading data file ...
  orthogonal box = (0.088841511 0.11770048 -22.326792) to (65.262565 61.496196 75.685992)
  1 by 1 by 1 MPI processor grid
  reading atoms ...
  14401 atoms
  reading velocities ...
  14401 velocities
  read_data CPU = 0.040 seconds
WARNING: No fixes with time integration, atoms won't move (src/verlet.cpp:60)
Neighbor list info ...
  update: every = 1 steps, delay = 0 steps, check = yes
  max neighbors/atom: 2000, page size: 100000
  master list distance cutoff = 6.8513889
  ghost atom cutoff = 6.8513889
  binsize = 3.4256945, bins = 20 18 29
  1 neighbor lists, perpetual/occasional/extra = 1 0 0
  (1) pair eam/alloy, perpetual
      attributes: half, newton on
      pair build: half/bin/atomonly/newton
      stencil: half/bin/3d
      bin: standard
Setting up Verlet run ...
  Unit style    : metal
  Current step  : 0
  Time step     : 0.001
Per MPI rank memory allocation (min/avg/max) = 8.216 | 8.216 | 8.216 Mbytes
   Step          Temp          E_pair         E_mol          TotEng         Press     
         0   0             -127105.45      0             -127105.45      18.046874    
Loop time of 5e-07 on 1 procs for 0 steps with 14401 atoms

0.0% CPU use with 1 MPI tasks x no OpenMP threads

MPI task timing breakdown:
Section |  min time  |  avg time  |  max time  |%varavg| %total
---------------------------------------------------------------
Pair    | 0          | 0          | 0          |   0.0 |  0.00
Neigh   | 0          | 0          | 0          |   0.0 |  0.00
Comm    | 0          | 0          | 0          |   0.0 |  0.00
Output  | 0          | 0          | 0          |   0.0 |  0.00
Modify  | 0          | 0          | 0          |   0.0 |  0.00
Other   |            | 5e-07      |            |       |100.00

Nlocal:          14401 ave       14401 max       14401 min
Histogram: 1 0 0 0 0 0 0 0 0 0
Nghost:           6973 ave        6973 max        6973 min
Histogram: 1 0 0 0 0 0 0 0 0 0
Neighs:         581635 ave      581635 max      581635 min
Histogram: 1 0 0 0 0 0 0 0 0 0

Total # of neighbors = 581635
Ave neighs/atom = 40.388515
Neighbor list builds = 0
Dangerous builds = 0
Setting up quickmin style minimization ...
  Unit style    : metal
  Current step  : 0
Per MPI rank memory allocation (min/avg/max) = 8.216 | 8.216 | 8.216 Mbytes
   Step          Temp          E_pair         E_mol          TotEng         Press     
         0   0             -127103.36      0             -127103.36      41.911652    
        12   0.013389927   -127105.28      0             -127105.26      20.452455    
Loop time of 0.148722 on 1 procs for 12 steps with 14401 atoms

99.9% CPU use with 1 MPI tasks x no OpenMP threads

Minimization stats:
  Stopping criterion = energy tolerance
  Energy initial, next-to-last, final = 
     -127103.364781728  -127105.281165894  -127105.282295908
  Force two-norm initial, final = 17.7856 0.55598879
  Force max component initial, final = 10.684668 0.27139051
  Final line search alpha, max atom move = 0 0
  Iterations, force evaluations = 12 12

MPI task timing breakdown:
Section |  min time  |  avg time  |  max time  |%varavg| %total
---------------------------------------------------------------
Pair    | 0.13447    | 0.13447    | 0.13447    |   0.0 | 90.42
Neigh   | 0          | 0          | 0          |   0.0 |  0.00
Comm    | 0.00049421 | 0.00049421 | 0.00049421 |   0.0 |  0.33
Output  | 0          | 0          | 0          |   0.0 |  0.00
Modify  | 0.0090966  | 0.0090966  | 0.0090966  |   0.0 |  6.12
Other   |            | 0.004657   |            |       |  3.13

Nlocal:          14401 ave       14401 max       14401 min
Histogram: 1 0 0 0 0 0 0 0 0 0
Nghost:           6973 ave        6973 max        6973 min
Histogram: 1 0 0 0 0 0 0 0 0 0
Neighs:         581638 ave      581638 max      581638 min
Histogram: 1 0 0 0 0 0 0 0 0 0

Total # of neighbors = 581638
Ave neighs/atom = 40.388723
Neighbor list builds = 0
Dangerous builds = 0
Setting up quickmin style minimization ...
  Unit style    : metal
  Current step  : 12
Per MPI rank memory allocation (min/avg/max) = 8.216 | 8.216 | 8.216 Mbytes
   Step          Temp          E_pair         E_mol          TotEng         Press     
        12   0             -127105.28      0             -127105.28      20.384558    
        18   0.021056454   -127105.29      0             -127105.25      20.362384    
Loop time of 0.0794325 on 1 procs for 6 steps with 14401 atoms

99.7% CPU use with 1 MPI tasks x no OpenMP threads

Minimization stats:
  Stopping criterion = energy tolerance
  Energy initial, next-to-last, final = 
     -127105.282295909  -127105.284959276  -127105.286395591
  Force two-norm initial, final = 0.55598879 0.54136003
  Force max component initial, final = 0.27139051 0.27790598
  Final line search alpha, max atom move = 0 0
  Iterations, force evaluations = 6 6

MPI task timing breakdown:
Section |  min time  |  avg time  |  max time  |%varavg| %total
---------------------------------------------------------------
Pair    | 0.072576   | 0.072576   | 0.072576   |   0.0 | 91.37
Neigh   | 0          | 0          | 0          |   0.0 |  0.00
Comm    | 0.00026579 | 0.00026579 | 0.00026579 |   0.0 |  0.33
Output  | 0          | 0          | 0          |   0.0 |  0.00
Modify  | 0.0043492  | 0.0043492  | 0.0043492  |   0.0 |  5.48
Other   |            | 0.002242   |            |       |  2.82

Nlocal:          14401 ave       14401 max       14401 min
Histogram: 1 0 0 0 0 0 0 0 0 0
Nghost:           6973 ave        6973 max        6973 min
Histogram: 1 0 0 0 0 0 0 0 0 0
Neighs:         581607 ave      581607 max      581607 min
Histogram: 1 0 0 0 0 0 0 0 0 0

Total # of neighbors = 581607
Ave neighs/atom = 40.38657
Neighbor list builds = 0
Dangerous builds = 0
Total wall time: 0:00:00
