LAMMPS (2 Aug 2023)
Processor partition = 5
Reading data file ...
  orthogonal box = (-1.1862975e-06 -1.1862975e-06 -1.1862975e-06) to (25.153769 25.153769 25.153769)
  1 by 1 by 1 MPI processor grid
  reading atoms ...
  1025 atoms
  reading velocities ...
  1025 velocities
  read_data CPU = 0.008 seconds
WARNING: No fixes with time integration, atoms won't move (src/verlet.cpp:60)
Neighbor list info ...
  update: every = 1 steps, delay = 0 steps, check = yes
  max neighbors/atom: 2000, page size: 100000
  master list distance cutoff = 6.8513889
  ghost atom cutoff = 6.8513889
  binsize = 3.4256945, bins = 8 8 8
  1 neighbor lists, perpetual/occasional/extra = 1 0 0
  (1) pair eam/alloy, perpetual
      attributes: half, newton on
      pair build: half/bin/atomonly/newton
      stencil: half/bin/3d
      bin: standard
Setting up Verlet run ...
  Unit style    : metal
  Current step  : 0
  Time step     : 0.001
Per MPI rank memory allocation (min/avg/max) = 3.324 | 3.324 | 3.324 Mbytes
   Step          Temp          E_pair         E_mol          TotEng         Press     
         0   0             -9157.7438      0             -9157.7438      1707.327     
Loop time of 7.92e-07 on 1 procs for 0 steps with 1025 atoms

126.3% CPU use with 1 MPI tasks x no OpenMP threads

MPI task timing breakdown:
Section |  min time  |  avg time  |  max time  |%varavg| %total
---------------------------------------------------------------
Pair    | 0          | 0          | 0          |   0.0 |  0.00
Neigh   | 0          | 0          | 0          |   0.0 |  0.00
Comm    | 0          | 0          | 0          |   0.0 |  0.00
Output  | 0          | 0          | 0          |   0.0 |  0.00
Modify  | 0          | 0          | 0          |   0.0 |  0.00
Other   |            | 7.92e-07   |            |       |100.00

Nlocal:           1025 ave        1025 max        1025 min
Histogram: 1 0 0 0 0 0 0 0 0 0
Nghost:           2901 ave        2901 max        2901 min
Histogram: 1 0 0 0 0 0 0 0 0 0
Neighs:          35732 ave       35732 max       35732 min
Histogram: 1 0 0 0 0 0 0 0 0 0

Total # of neighbors = 35732
Ave neighs/atom = 34.860488
Neighbor list builds = 0
Dangerous builds = 0
Setting up quickmin style minimization ...
  Unit style    : metal
  Current step  : 0
Per MPI rank memory allocation (min/avg/max) = 3.324 | 3.324 | 3.324 Mbytes
   Step          Temp          E_pair         E_mol          TotEng         Press     
         0   0             -9157.1853      0             -9157.1853      1812.7907    
        31   0.17171578    -9157.5945      0             -9157.5718      1575.4854    
Loop time of 0.062014 on 1 procs for 31 steps with 1025 atoms

89.1% CPU use with 1 MPI tasks x no OpenMP threads

Minimization stats:
  Stopping criterion = energy tolerance
  Energy initial, next-to-last, final = 
      -9157.1853176725  -9157.59384210936  -9157.59450093211
  Force two-norm initial, final = 4.6575179 0.41197104
  Force max component initial, final = 2.0005881 0.16961071
  Final line search alpha, max atom move = 0 0
  Iterations, force evaluations = 31 31

MPI task timing breakdown:
Section |  min time  |  avg time  |  max time  |%varavg| %total
---------------------------------------------------------------
Pair    | 0.03003    | 0.03003    | 0.03003    |   0.0 | 48.42
Neigh   | 0          | 0          | 0          |   0.0 |  0.00
Comm    | 0.00042375 | 0.00042375 | 0.00042375 |   0.0 |  0.68
Output  | 0          | 0          | 0          |   0.0 |  0.00
Modify  | 0.025953   | 0.025953   | 0.025953   |   0.0 | 41.85
Other   |            | 0.005608   |            |       |  9.04

Nlocal:           1025 ave        1025 max        1025 min
Histogram: 1 0 0 0 0 0 0 0 0 0
Nghost:           2901 ave        2901 max        2901 min
Histogram: 1 0 0 0 0 0 0 0 0 0
Neighs:          35651 ave       35651 max       35651 min
Histogram: 1 0 0 0 0 0 0 0 0 0

Total # of neighbors = 35651
Ave neighs/atom = 34.781463
Neighbor list builds = 0
Dangerous builds = 0
Setting up quickmin style minimization ...
  Unit style    : metal
  Current step  : 31
Per MPI rank memory allocation (min/avg/max) = 3.324 | 3.324 | 3.324 Mbytes
   Step          Temp          E_pair         E_mol          TotEng         Press     
        31   0             -9157.5945      0             -9157.5945      1573.96      
        37   0.032155524   -9157.5954      0             -9157.5911      1573.3119    
Loop time of 0.010134 on 1 procs for 6 steps with 1025 atoms

93.4% CPU use with 1 MPI tasks x no OpenMP threads

Minimization stats:
  Stopping criterion = energy tolerance
  Energy initial, next-to-last, final = 
     -9157.59450093211  -9157.59513166143   -9157.5954033149
  Force two-norm initial, final = 0.41197104 0.4004177
  Force max component initial, final = 0.16961071 0.16342245
  Final line search alpha, max atom move = 0 0
  Iterations, force evaluations = 6 6

MPI task timing breakdown:
Section |  min time  |  avg time  |  max time  |%varavg| %total
---------------------------------------------------------------
Pair    | 0.0074373  | 0.0074373  | 0.0074373  |   0.0 | 73.39
Neigh   | 0          | 0          | 0          |   0.0 |  0.00
Comm    | 0.00011238 | 0.00011238 | 0.00011238 |   0.0 |  1.11
Output  | 0          | 0          | 0          |   0.0 |  0.00
Modify  | 0.0020332  | 0.0020332  | 0.0020332  |   0.0 | 20.06
Other   |            | 0.0005512  |            |       |  5.44

Nlocal:           1025 ave        1025 max        1025 min
Histogram: 1 0 0 0 0 0 0 0 0 0
Nghost:           2901 ave        2901 max        2901 min
Histogram: 1 0 0 0 0 0 0 0 0 0
Neighs:          35638 ave       35638 max       35638 min
Histogram: 1 0 0 0 0 0 0 0 0 0

Total # of neighbors = 35638
Ave neighs/atom = 34.76878
Neighbor list builds = 0
Dangerous builds = 0
Total wall time: 0:00:00
