LAMMPS (2 Aug 2023)
Processor partition = 5
Reading data file ...
  orthogonal box = (0.088598786 0.11745496 -22.325914) to (65.262807 61.496442 75.685114)
  1 by 1 by 1 MPI processor grid
  reading atoms ...
  14401 atoms
  reading velocities ...
  14401 velocities
  read_data CPU = 0.038 seconds
WARNING: No fixes with time integration, atoms won't move (src/verlet.cpp:60)
Neighbor list info ...
  update: every = 1 steps, delay = 0 steps, check = yes
  max neighbors/atom: 2000, page size: 100000
  master list distance cutoff = 6.8513889
  ghost atom cutoff = 6.8513889
  binsize = 3.4256945, bins = 20 18 29
  1 neighbor lists, perpetual/occasional/extra = 1 0 0
  (1) pair eam/alloy, perpetual
      attributes: half, newton on
      pair build: half/bin/atomonly/newton
      stencil: half/bin/3d
      bin: standard
Setting up Verlet run ...
  Unit style    : metal
  Current step  : 0
  Time step     : 0.001
Per MPI rank memory allocation (min/avg/max) = 8.204 | 8.204 | 8.204 Mbytes
   Step          Temp          E_pair         E_mol          TotEng         Press     
         0   0             -127105.45      0             -127105.45      0.19843209   
Loop time of 8.33e-07 on 1 procs for 0 steps with 14401 atoms

240.1% CPU use with 1 MPI tasks x no OpenMP threads

MPI task timing breakdown:
Section |  min time  |  avg time  |  max time  |%varavg| %total
---------------------------------------------------------------
Pair    | 0          | 0          | 0          |   0.0 |  0.00
Neigh   | 0          | 0          | 0          |   0.0 |  0.00
Comm    | 0          | 0          | 0          |   0.0 |  0.00
Output  | 0          | 0          | 0          |   0.0 |  0.00
Modify  | 0          | 0          | 0          |   0.0 |  0.00
Other   |            | 8.33e-07   |            |       |100.00

Nlocal:          14401 ave       14401 max       14401 min
Histogram: 1 0 0 0 0 0 0 0 0 0
Nghost:           6973 ave        6973 max        6973 min
Histogram: 1 0 0 0 0 0 0 0 0 0
Neighs:         581668 ave      581668 max      581668 min
Histogram: 1 0 0 0 0 0 0 0 0 0

Total # of neighbors = 581668
Ave neighs/atom = 40.390806
Neighbor list builds = 0
Dangerous builds = 0
Setting up quickmin style minimization ...
  Unit style    : metal
  Current step  : 0
Per MPI rank memory allocation (min/avg/max) = 8.204 | 8.204 | 8.204 Mbytes
   Step          Temp          E_pair         E_mol          TotEng         Press     
         0   0             -127105.19      0             -127105.19      2.6499884    
         6   0.055403844   -127105.21      0             -127105.11      2.4184059    
Loop time of 0.0959434 on 1 procs for 6 steps with 14401 atoms

99.4% CPU use with 1 MPI tasks x no OpenMP threads

Minimization stats:
  Stopping criterion = energy tolerance
  Energy initial, next-to-last, final = 
      -127105.19040152  -127105.206592715  -127105.214081312
  Force two-norm initial, final = 2.5202998 2.2123843
  Force max component initial, final = 1.0433588 0.8685352
  Final line search alpha, max atom move = 0 0
  Iterations, force evaluations = 6 6

MPI task timing breakdown:
Section |  min time  |  avg time  |  max time  |%varavg| %total
---------------------------------------------------------------
Pair    | 0.051332   | 0.051332   | 0.051332   |   0.0 | 53.50
Neigh   | 0          | 0          | 0          |   0.0 |  0.00
Comm    | 0.00025696 | 0.00025696 | 0.00025696 |   0.0 |  0.27
Output  | 0          | 0          | 0          |   0.0 |  0.00
Modify  | 0.038271   | 0.038271   | 0.038271   |   0.0 | 39.89
Other   |            | 0.006083   |            |       |  6.34

Nlocal:          14401 ave       14401 max       14401 min
Histogram: 1 0 0 0 0 0 0 0 0 0
Nghost:           6973 ave        6973 max        6973 min
Histogram: 1 0 0 0 0 0 0 0 0 0
Neighs:         581657 ave      581657 max      581657 min
Histogram: 1 0 0 0 0 0 0 0 0 0

Total # of neighbors = 581657
Ave neighs/atom = 40.390042
Neighbor list builds = 0
Dangerous builds = 0
Setting up quickmin style minimization ...
  Unit style    : metal
  Current step  : 6
Per MPI rank memory allocation (min/avg/max) = 8.204 | 8.204 | 8.204 Mbytes
   Step          Temp          E_pair         E_mol          TotEng         Press     
         6   0             -127105.21      0             -127105.21      2.1374645    
        12   0.045653369   -127105.23      0             -127105.15      1.9288722    
Loop time of 0.0964048 on 1 procs for 6 steps with 14401 atoms

99.4% CPU use with 1 MPI tasks x no OpenMP threads

Minimization stats:
  Stopping criterion = energy tolerance
  Energy initial, next-to-last, final = 
     -127105.214081312  -127105.227002458  -127105.233020327
  Force two-norm initial, final = 2.2123843 1.9586142
  Force max component initial, final = 0.8685352 0.7735654
  Final line search alpha, max atom move = 0 0
  Iterations, force evaluations = 6 6

MPI task timing breakdown:
Section |  min time  |  avg time  |  max time  |%varavg| %total
---------------------------------------------------------------
Pair    | 0.052386   | 0.052386   | 0.052386   |   0.0 | 54.34
Neigh   | 0          | 0          | 0          |   0.0 |  0.00
Comm    | 0.00021833 | 0.00021833 | 0.00021833 |   0.0 |  0.23
Output  | 0          | 0          | 0          |   0.0 |  0.00
Modify  | 0.034767   | 0.034767   | 0.034767   |   0.0 | 36.06
Other   |            | 0.009034   |            |       |  9.37

Nlocal:          14401 ave       14401 max       14401 min
Histogram: 1 0 0 0 0 0 0 0 0 0
Nghost:           6973 ave        6973 max        6973 min
Histogram: 1 0 0 0 0 0 0 0 0 0
Neighs:         581657 ave      581657 max      581657 min
Histogram: 1 0 0 0 0 0 0 0 0 0

Total # of neighbors = 581657
Ave neighs/atom = 40.390042
Neighbor list builds = 0
Dangerous builds = 0
Total wall time: 0:00:00
