LAMMPS (2 Aug 2023)
Processor partition = 4
Reading data file ...
  orthogonal box = (-1.0380103e-06 -1.0380103e-06 -1.0380103e-06) to (22.009548 22.009548 22.009548)
  1 by 1 by 1 MPI processor grid
  reading atoms ...
  687 atoms
  reading velocities ...
  687 velocities
  read_data CPU = 0.010 seconds
WARNING: No fixes with time integration, atoms won't move (src/verlet.cpp:60)
Neighbor list info ...
  update: every = 1 steps, delay = 0 steps, check = yes
  max neighbors/atom: 2000, page size: 100000
  master list distance cutoff = 6.8513889
  ghost atom cutoff = 6.8513889
  binsize = 3.4256945, bins = 7 7 7
  1 neighbor lists, perpetual/occasional/extra = 1 0 0
  (1) pair eam/alloy, perpetual
      attributes: half, newton on
      pair build: half/bin/atomonly/newton
      stencil: half/bin/3d
      bin: standard
Setting up Verlet run ...
  Unit style    : metal
  Current step  : 0
  Time step     : 0.001
Per MPI rank memory allocation (min/avg/max) = 3.306 | 3.306 | 3.306 Mbytes
   Step          Temp          E_pair         E_mol          TotEng         Press     
         0   0             -6133.3592      0             -6133.3592      1569.8768    
Loop time of 5.41e-07 on 1 procs for 0 steps with 687 atoms

0.0% CPU use with 1 MPI tasks x no OpenMP threads

MPI task timing breakdown:
Section |  min time  |  avg time  |  max time  |%varavg| %total
---------------------------------------------------------------
Pair    | 0          | 0          | 0          |   0.0 |  0.00
Neigh   | 0          | 0          | 0          |   0.0 |  0.00
Comm    | 0          | 0          | 0          |   0.0 |  0.00
Output  | 0          | 0          | 0          |   0.0 |  0.00
Modify  | 0          | 0          | 0          |   0.0 |  0.00
Other   |            | 5.41e-07   |            |       |100.00

Nlocal:            687 ave         687 max         687 min
Histogram: 1 0 0 0 0 0 0 0 0 0
Nghost:           2373 ave        2373 max        2373 min
Histogram: 1 0 0 0 0 0 0 0 0 0
Neighs:          23552 ave       23552 max       23552 min
Histogram: 1 0 0 0 0 0 0 0 0 0

Total # of neighbors = 23552
Ave neighs/atom = 34.282387
Neighbor list builds = 0
Dangerous builds = 0
Setting up quickmin style minimization ...
  Unit style    : metal
  Current step  : 0
Per MPI rank memory allocation (min/avg/max) = 3.306 | 3.306 | 3.306 Mbytes
   Step          Temp          E_pair         E_mol          TotEng         Press     
         0   0             -6133.0129      0             -6133.0129      1837.981     
       100   3.6217504e-05 -6133.243       0             -6133.243       1538.6937    
       200   3.1783458e-08 -6133.2442      0             -6133.2442      1537.8143    
       300   1.4585886e-13 -6133.2442      0             -6133.2442      1537.8049    
       392   1.3235297e-15 -6133.2442      0             -6133.2442      1537.8051    
Loop time of 0.365463 on 1 procs for 392 steps with 687 atoms

98.8% CPU use with 1 MPI tasks x no OpenMP threads

Minimization stats:
  Stopping criterion = energy tolerance
  Energy initial, next-to-last, final = 
     -6133.01291352204  -6133.24418194097  -6133.24418194095
  Force two-norm initial, final = 2.9707428 1.8461553e-07
  Force max component initial, final = 1.4030576 1.0290497e-07
  Final line search alpha, max atom move = 0 0
  Iterations, force evaluations = 392 392

MPI task timing breakdown:
Section |  min time  |  avg time  |  max time  |%varavg| %total
---------------------------------------------------------------
Pair    | 0.19248    | 0.19248    | 0.19248    |   0.0 | 52.67
Neigh   | 0          | 0          | 0          |   0.0 |  0.00
Comm    | 0.0034355  | 0.0034355  | 0.0034355  |   0.0 |  0.94
Output  | 1.3708e-05 | 1.3708e-05 | 1.3708e-05 |   0.0 |  0.00
Modify  | 0.15156    | 0.15156    | 0.15156    |   0.0 | 41.47
Other   |            | 0.01797    |            |       |  4.92

Nlocal:            687 ave         687 max         687 min
Histogram: 1 0 0 0 0 0 0 0 0 0
Nghost:           2373 ave        2373 max        2373 min
Histogram: 1 0 0 0 0 0 0 0 0 0
Neighs:          23557 ave       23557 max       23557 min
Histogram: 1 0 0 0 0 0 0 0 0 0

Total # of neighbors = 23557
Ave neighs/atom = 34.289665
Neighbor list builds = 0
Dangerous builds = 0
Setting up quickmin style minimization ...
  Unit style    : metal
  Current step  : 392
Per MPI rank memory allocation (min/avg/max) = 3.306 | 3.306 | 3.306 Mbytes
   Step          Temp          E_pair         E_mol          TotEng         Press     
       392   0             -6133.2442      0             -6133.2442      1537.8051    
       400   5.4607914e-14 -6133.2442      0             -6133.2442      1537.8051    
       500   2.1306159e-16 -6133.2442      0             -6133.2442      1537.8052    
       502   2.0529928e-16 -6133.2442      0             -6133.2442      1537.8052    
Loop time of 0.102823 on 1 procs for 110 steps with 687 atoms

98.4% CPU use with 1 MPI tasks x no OpenMP threads

Minimization stats:
  Stopping criterion = energy tolerance
  Energy initial, next-to-last, final = 
     -6133.24418194095  -6133.24418173512  -6133.24418173509
  Force two-norm initial, final = 1.8461553e-07 3.8575478e-09
  Force max component initial, final = 1.0290497e-07 2.4376242e-09
  Final line search alpha, max atom move = 0 0
  Iterations, force evaluations = 110 110

MPI task timing breakdown:
Section |  min time  |  avg time  |  max time  |%varavg| %total
---------------------------------------------------------------
Pair    | 0.053894   | 0.053894   | 0.053894   |   0.0 | 52.41
Neigh   | 0          | 0          | 0          |   0.0 |  0.00
Comm    | 0.00083817 | 0.00083817 | 0.00083817 |   0.0 |  0.82
Output  | 9.458e-06  | 9.458e-06  | 9.458e-06  |   0.0 |  0.01
Modify  | 0.043204   | 0.043204   | 0.043204   |   0.0 | 42.02
Other   |            | 0.004878   |            |       |  4.74

Nlocal:            687 ave         687 max         687 min
Histogram: 1 0 0 0 0 0 0 0 0 0
Nghost:           2373 ave        2373 max        2373 min
Histogram: 1 0 0 0 0 0 0 0 0 0
Neighs:          23780 ave       23780 max       23780 min
Histogram: 1 0 0 0 0 0 0 0 0 0

Total # of neighbors = 23780
Ave neighs/atom = 34.614265
Neighbor list builds = 0
Dangerous builds = 0
Total wall time: 0:00:00
