LAMMPS (2 Aug 2023)
Processor partition = 2
Reading data file ...
  orthogonal box = (-1.1862975e-06 -1.1862975e-06 -1.1862975e-06) to (25.153769 25.153769 25.153769)
  1 by 1 by 1 MPI processor grid
  reading atoms ...
  1025 atoms
  reading velocities ...
  1025 velocities
  read_data CPU = 0.007 seconds
WARNING: No fixes with time integration, atoms won't move (src/verlet.cpp:60)
Neighbor list info ...
  update: every = 1 steps, delay = 0 steps, check = yes
  max neighbors/atom: 2000, page size: 100000
  master list distance cutoff = 6.8513889
  ghost atom cutoff = 6.8513889
  binsize = 3.4256945, bins = 8 8 8
  1 neighbor lists, perpetual/occasional/extra = 1 0 0
  (1) pair eam/alloy, perpetual
      attributes: half, newton on
      pair build: half/bin/atomonly/newton
      stencil: half/bin/3d
      bin: standard
Setting up Verlet run ...
  Unit style    : metal
  Current step  : 0
  Time step     : 0.001
Per MPI rank memory allocation (min/avg/max) = 3.324 | 3.324 | 3.324 Mbytes
   Step          Temp          E_pair         E_mol          TotEng         Press     
         0   0             -9157.7438      0             -9157.7438      1707.327     
Loop time of 4.17e-07 on 1 procs for 0 steps with 1025 atoms

239.8% CPU use with 1 MPI tasks x no OpenMP threads

MPI task timing breakdown:
Section |  min time  |  avg time  |  max time  |%varavg| %total
---------------------------------------------------------------
Pair    | 0          | 0          | 0          |   0.0 |  0.00
Neigh   | 0          | 0          | 0          |   0.0 |  0.00
Comm    | 0          | 0          | 0          |   0.0 |  0.00
Output  | 0          | 0          | 0          |   0.0 |  0.00
Modify  | 0          | 0          | 0          |   0.0 |  0.00
Other   |            | 4.17e-07   |            |       |100.00

Nlocal:           1025 ave        1025 max        1025 min
Histogram: 1 0 0 0 0 0 0 0 0 0
Nghost:           2901 ave        2901 max        2901 min
Histogram: 1 0 0 0 0 0 0 0 0 0
Neighs:          35732 ave       35732 max       35732 min
Histogram: 1 0 0 0 0 0 0 0 0 0

Total # of neighbors = 35732
Ave neighs/atom = 34.860488
Neighbor list builds = 0
Dangerous builds = 0
Setting up quickmin style minimization ...
  Unit style    : metal
  Current step  : 0
Per MPI rank memory allocation (min/avg/max) = 3.324 | 3.324 | 3.324 Mbytes
   Step          Temp          E_pair         E_mol          TotEng         Press     
         0   0             -9157.3773      0             -9157.3773      1838.805     
        31   0.1487635     -9157.6512      0             -9157.6315      1616.2874    
Loop time of 0.0569318 on 1 procs for 31 steps with 1025 atoms

86.5% CPU use with 1 MPI tasks x no OpenMP threads

Minimization stats:
  Stopping criterion = energy tolerance
  Energy initial, next-to-last, final = 
     -9157.37730922911  -9157.65062655127  -9157.65119293825
  Force two-norm initial, final = 3.8899855 0.38205373
  Force max component initial, final = 1.7323655 0.16679763
  Final line search alpha, max atom move = 0 0
  Iterations, force evaluations = 31 31

MPI task timing breakdown:
Section |  min time  |  avg time  |  max time  |%varavg| %total
---------------------------------------------------------------
Pair    | 0.026843   | 0.026843   | 0.026843   |   0.0 | 47.15
Neigh   | 0          | 0          | 0          |   0.0 |  0.00
Comm    | 0.00042859 | 0.00042859 | 0.00042859 |   0.0 |  0.75
Output  | 0          | 0          | 0          |   0.0 |  0.00
Modify  | 0.022918   | 0.022918   | 0.022918   |   0.0 | 40.26
Other   |            | 0.006742   |            |       | 11.84

Nlocal:           1025 ave        1025 max        1025 min
Histogram: 1 0 0 0 0 0 0 0 0 0
Nghost:           2901 ave        2901 max        2901 min
Histogram: 1 0 0 0 0 0 0 0 0 0
Neighs:          35684 ave       35684 max       35684 min
Histogram: 1 0 0 0 0 0 0 0 0 0

Total # of neighbors = 35684
Ave neighs/atom = 34.813659
Neighbor list builds = 0
Dangerous builds = 0
Setting up quickmin style minimization ...
  Unit style    : metal
  Current step  : 31
Per MPI rank memory allocation (min/avg/max) = 3.324 | 3.324 | 3.324 Mbytes
   Step          Temp          E_pair         E_mol          TotEng         Press     
        31   0             -9157.6512      0             -9157.6512      1614.9658    
        37   0.027214566   -9157.652       0             -9157.6484      1615.5963    
Loop time of 0.0103977 on 1 procs for 6 steps with 1025 atoms

97.3% CPU use with 1 MPI tasks x no OpenMP threads

Minimization stats:
  Stopping criterion = energy tolerance
  Energy initial, next-to-last, final = 
     -9157.65119293825  -9157.65173344085  -9157.65196483338
  Force two-norm initial, final = 0.38205373 0.37101681
  Force max component initial, final = 0.16679763 0.16298891
  Final line search alpha, max atom move = 0 0
  Iterations, force evaluations = 6 6

MPI task timing breakdown:
Section |  min time  |  avg time  |  max time  |%varavg| %total
---------------------------------------------------------------
Pair    | 0.0063065  | 0.0063065  | 0.0063065  |   0.0 | 60.65
Neigh   | 0          | 0          | 0          |   0.0 |  0.00
Comm    | 0.00013437 | 0.00013437 | 0.00013437 |   0.0 |  1.29
Output  | 0          | 0          | 0          |   0.0 |  0.00
Modify  | 0.0035806  | 0.0035806  | 0.0035806  |   0.0 | 34.44
Other   |            | 0.0003762  |            |       |  3.62

Nlocal:           1025 ave        1025 max        1025 min
Histogram: 1 0 0 0 0 0 0 0 0 0
Nghost:           2901 ave        2901 max        2901 min
Histogram: 1 0 0 0 0 0 0 0 0 0
Neighs:          35642 ave       35642 max       35642 min
Histogram: 1 0 0 0 0 0 0 0 0 0

Total # of neighbors = 35642
Ave neighs/atom = 34.772683
Neighbor list builds = 0
Dangerous builds = 0
Total wall time: 0:00:00
