LAMMPS (2 Aug 2023)
Processor partition = 4
Reading data file ...
  orthogonal box = (-1.4828723e-06 -1.4828723e-06 -1.4828723e-06) to (31.442211 31.442211 31.442211)
  1 by 1 by 1 MPI processor grid
  reading atoms ...
  2001 atoms
  reading velocities ...
  2001 velocities
  read_data CPU = 0.009 seconds
WARNING: No fixes with time integration, atoms won't move (src/verlet.cpp:60)
Neighbor list info ...
  update: every = 1 steps, delay = 0 steps, check = yes
  max neighbors/atom: 2000, page size: 100000
  master list distance cutoff = 6.8513889
  ghost atom cutoff = 6.8513889
  binsize = 3.4256945, bins = 10 10 10
  1 neighbor lists, perpetual/occasional/extra = 1 0 0
  (1) pair eam/alloy, perpetual
      attributes: half, newton on
      pair build: half/bin/atomonly/newton
      stencil: half/bin/3d
      bin: standard
Setting up Verlet run ...
  Unit style    : metal
  Current step  : 0
  Time step     : 0.001
Per MPI rank memory allocation (min/avg/max) = 3.385 | 3.385 | 3.385 Mbytes
   Step          Temp          E_pair         E_mol          TotEng         Press     
         0   0             -17893.183      0             -17893.183      540.96771    
Loop time of 4.16e-07 on 1 procs for 0 steps with 2001 atoms

0.0% CPU use with 1 MPI tasks x no OpenMP threads

MPI task timing breakdown:
Section |  min time  |  avg time  |  max time  |%varavg| %total
---------------------------------------------------------------
Pair    | 0          | 0          | 0          |   0.0 |  0.00
Neigh   | 0          | 0          | 0          |   0.0 |  0.00
Comm    | 0          | 0          | 0          |   0.0 |  0.00
Output  | 0          | 0          | 0          |   0.0 |  0.00
Modify  | 0          | 0          | 0          |   0.0 |  0.00
Other   |            | 4.16e-07   |            |       |100.00

Nlocal:           2001 ave        2001 max        2001 min
Histogram: 1 0 0 0 0 0 0 0 0 0
Nghost:           4119 ave        4119 max        4119 min
Histogram: 1 0 0 0 0 0 0 0 0 0
Neighs:          65460 ave       65460 max       65460 min
Histogram: 1 0 0 0 0 0 0 0 0 0

Total # of neighbors = 65460
Ave neighs/atom = 32.713643
Neighbor list builds = 0
Dangerous builds = 0
Setting up quickmin style minimization ...
  Unit style    : metal
  Current step  : 0
Per MPI rank memory allocation (min/avg/max) = 3.385 | 3.385 | 3.385 Mbytes
   Step          Temp          E_pair         E_mol          TotEng         Press     
         0   0             -17892.76       0             -17892.76       655.77236    
        29   2.7377328     -17892.997      0             -17892.289      580.27304    
Loop time of 0.0785341 on 1 procs for 29 steps with 2001 atoms

91.4% CPU use with 1 MPI tasks x no OpenMP threads

Minimization stats:
  Stopping criterion = energy tolerance
  Energy initial, next-to-last, final = 
     -17892.7602747453  -17892.9951499363  -17892.9966477456
  Force two-norm initial, final = 3.278433 0.10676067
  Force max component initial, final = 1.6021063 0.053772186
  Final line search alpha, max atom move = 0 0
  Iterations, force evaluations = 29 29

MPI task timing breakdown:
Section |  min time  |  avg time  |  max time  |%varavg| %total
---------------------------------------------------------------
Pair    | 0.04159    | 0.04159    | 0.04159    |   0.0 | 52.96
Neigh   | 0          | 0          | 0          |   0.0 |  0.00
Comm    | 0.00066491 | 0.00066491 | 0.00066491 |   0.0 |  0.85
Output  | 0          | 0          | 0          |   0.0 |  0.00
Modify  | 0.03083    | 0.03083    | 0.03083    |   0.0 | 39.26
Other   |            | 0.005449   |            |       |  6.94

Nlocal:           2001 ave        2001 max        2001 min
Histogram: 1 0 0 0 0 0 0 0 0 0
Nghost:           4119 ave        4119 max        4119 min
Histogram: 1 0 0 0 0 0 0 0 0 0
Neighs:          65445 ave       65445 max       65445 min
Histogram: 1 0 0 0 0 0 0 0 0 0

Total # of neighbors = 65445
Ave neighs/atom = 32.706147
Neighbor list builds = 0
Dangerous builds = 0
Setting up quickmin style minimization ...
  Unit style    : metal
  Current step  : 29
Per MPI rank memory allocation (min/avg/max) = 3.385 | 3.385 | 3.385 Mbytes
   Step          Temp          E_pair         E_mol          TotEng         Press     
        29   0             -17892.997      0             -17892.997      555.95294    
        35   0.042622567   -17892.994      0             -17892.983      556.47206    
Loop time of 0.0172596 on 1 procs for 6 steps with 2001 atoms

98.0% CPU use with 1 MPI tasks x no OpenMP threads

Minimization stats:
  Stopping criterion = energy tolerance
  Energy initial, next-to-last, final = 
     -17892.9966477456  -17892.9948146683  -17892.9939602578
  Force two-norm initial, final = 0.34412264 0.30788036
  Force max component initial, final = 0.28130956 0.25397846
  Final line search alpha, max atom move = 0 0
  Iterations, force evaluations = 6 6

MPI task timing breakdown:
Section |  min time  |  avg time  |  max time  |%varavg| %total
---------------------------------------------------------------
Pair    | 0.0088067  | 0.0088067  | 0.0088067  |   0.0 | 51.03
Neigh   | 0          | 0          | 0          |   0.0 |  0.00
Comm    | 0.00012354 | 0.00012354 | 0.00012354 |   0.0 |  0.72
Output  | 0          | 0          | 0          |   0.0 |  0.00
Modify  | 0.0075203  | 0.0075203  | 0.0075203  |   0.0 | 43.57
Other   |            | 0.000809   |            |       |  4.69

Nlocal:           2001 ave        2001 max        2001 min
Histogram: 1 0 0 0 0 0 0 0 0 0
Nghost:           4119 ave        4119 max        4119 min
Histogram: 1 0 0 0 0 0 0 0 0 0
Neighs:          65484 ave       65484 max       65484 min
Histogram: 1 0 0 0 0 0 0 0 0 0

Total # of neighbors = 65484
Ave neighs/atom = 32.725637
Neighbor list builds = 0
Dangerous builds = 0
Total wall time: 0:00:00
