LAMMPS (2 Aug 2023)
Processor partition = 5
Reading data file ...
  orthogonal box = (0.082000027 0.082000068 -15.828637) to (37.648652 37.648652 53.559289)
  1 by 1 by 1 MPI processor grid
  reading atoms ...
  3601 atoms
  reading velocities ...
  3601 velocities
  read_data CPU = 0.012 seconds
WARNING: No fixes with time integration, atoms won't move (src/verlet.cpp:60)
Neighbor list info ...
  update: every = 1 steps, delay = 0 steps, check = yes
  max neighbors/atom: 2000, page size: 100000
  master list distance cutoff = 6.8513889
  ghost atom cutoff = 6.8513889
  binsize = 3.4256945, bins = 11 11 21
  1 neighbor lists, perpetual/occasional/extra = 1 0 0
  (1) pair eam/alloy, perpetual
      attributes: half, newton on
      pair build: half/bin/atomonly/newton
      stencil: half/bin/3d
      bin: standard
Setting up Verlet run ...
  Unit style    : metal
  Current step  : 0
  Time step     : 0.001
Per MPI rank memory allocation (min/avg/max) = 3.791 | 3.791 | 3.791 Mbytes
   Step          Temp          E_pair         E_mol          TotEng         Press     
         0   0             -31517.304      0             -31517.304     -0.080910212  
Loop time of 3.33e-07 on 1 procs for 0 steps with 3601 atoms

0.0% CPU use with 1 MPI tasks x no OpenMP threads

MPI task timing breakdown:
Section |  min time  |  avg time  |  max time  |%varavg| %total
---------------------------------------------------------------
Pair    | 0          | 0          | 0          |   0.0 |  0.00
Neigh   | 0          | 0          | 0          |   0.0 |  0.00
Comm    | 0          | 0          | 0          |   0.0 |  0.00
Output  | 0          | 0          | 0          |   0.0 |  0.00
Modify  | 0          | 0          | 0          |   0.0 |  0.00
Other   |            | 3.33e-07   |            |       |100.00

Nlocal:           3601 ave        3601 max        3601 min
Histogram: 1 0 0 0 0 0 0 0 0 0
Nghost:           3229 ave        3229 max        3229 min
Histogram: 1 0 0 0 0 0 0 0 0 0
Neighs:         147769 ave      147769 max      147769 min
Histogram: 1 0 0 0 0 0 0 0 0 0

Total # of neighbors = 147769
Ave neighs/atom = 41.035546
Neighbor list builds = 0
Dangerous builds = 0
Setting up quickmin style minimization ...
  Unit style    : metal
  Current step  : 0
Per MPI rank memory allocation (min/avg/max) = 3.791 | 3.791 | 3.791 Mbytes
   Step          Temp          E_pair         E_mol          TotEng         Press     
         0   0             -31510.527      0             -31510.527      176.72708    
        39   0.012214648   -31510.533      0             -31510.527      162.97186    
Loop time of 0.0824763 on 1 procs for 39 steps with 3601 atoms

99.2% CPU use with 1 MPI tasks x no OpenMP threads

Minimization stats:
  Stopping criterion = energy tolerance
  Energy initial, next-to-last, final = 
     -31510.5265182533  -31510.5325340999  -31510.5325879311
  Force two-norm initial, final = 0.50781776 0.21644197
  Force max component initial, final = 0.083703888 0.13684857
  Final line search alpha, max atom move = 0 0
  Iterations, force evaluations = 39 39

MPI task timing breakdown:
Section |  min time  |  avg time  |  max time  |%varavg| %total
---------------------------------------------------------------
Pair    | 0.069273   | 0.069273   | 0.069273   |   0.0 | 83.99
Neigh   | 0          | 0          | 0          |   0.0 |  0.00
Comm    | 0.00041925 | 0.00041925 | 0.00041925 |   0.0 |  0.51
Output  | 0          | 0          | 0          |   0.0 |  0.00
Modify  | 0.0063877  | 0.0063877  | 0.0063877  |   0.0 |  7.74
Other   |            | 0.006396   |            |       |  7.76

Nlocal:           3601 ave        3601 max        3601 min
Histogram: 1 0 0 0 0 0 0 0 0 0
Nghost:           3229 ave        3229 max        3229 min
Histogram: 1 0 0 0 0 0 0 0 0 0
Neighs:         146523 ave      146523 max      146523 min
Histogram: 1 0 0 0 0 0 0 0 0 0

Total # of neighbors = 146523
Ave neighs/atom = 40.689531
Neighbor list builds = 0
Dangerous builds = 0
Setting up quickmin style minimization ...
  Unit style    : metal
  Current step  : 39
Per MPI rank memory allocation (min/avg/max) = 3.791 | 3.791 | 3.791 Mbytes
   Step          Temp          E_pair         E_mol          TotEng         Press     
        39   0             -31510.533      0             -31510.533      162.90986    
       100   0.10661198    -31510.533      0             -31510.483      148.80886    
       141   0.0022287303  -31510.533      0             -31510.532      145.55863    
Loop time of 0.203519 on 1 procs for 102 steps with 3601 atoms

99.8% CPU use with 1 MPI tasks x no OpenMP threads

Minimization stats:
  Stopping criterion = energy tolerance
  Energy initial, next-to-last, final = 
     -31510.5325879311   -31510.532955445  -31510.5329516857
  Force two-norm initial, final = 0.21644197 0.14534858
  Force max component initial, final = 0.13684857 0.11131145
  Final line search alpha, max atom move = 0 0
  Iterations, force evaluations = 102 102

MPI task timing breakdown:
Section |  min time  |  avg time  |  max time  |%varavg| %total
---------------------------------------------------------------
Pair    | 0.17362    | 0.17362    | 0.17362    |   0.0 | 85.31
Neigh   | 0          | 0          | 0          |   0.0 |  0.00
Comm    | 0.00091088 | 0.00091088 | 0.00091088 |   0.0 |  0.45
Output  | 9.417e-06  | 9.417e-06  | 9.417e-06  |   0.0 |  0.00
Modify  | 0.015845   | 0.015845   | 0.015845   |   0.0 |  7.79
Other   |            | 0.01313    |            |       |  6.45

Nlocal:           3601 ave        3601 max        3601 min
Histogram: 1 0 0 0 0 0 0 0 0 0
Nghost:           3229 ave        3229 max        3229 min
Histogram: 1 0 0 0 0 0 0 0 0 0
Neighs:         146533 ave      146533 max      146533 min
Histogram: 1 0 0 0 0 0 0 0 0 0

Total # of neighbors = 146533
Ave neighs/atom = 40.692308
Neighbor list builds = 0
Dangerous builds = 0
Total wall time: 0:00:00
