ITEM: TIMESTEP
71
ITEM: NUMBER OF ATOMS
687
ITEM: BOX BOUNDS pp pp pp
0.0000000000000000e+00 2.2009546999999998e+01
0.0000000000000000e+00 2.2009546999999998e+01
0.0000000000000000e+00 2.2009546999999998e+01
ITEM: ATOMS id type xu yu zu
1 1 -0.000371424 -1.56148e-07 -0.000328938
2 1 1.571 1.57163 1.57122
3 1 3.14339 -6.15201e-07 -0.000521207
4 1 4.71519 1.57146 1.57097
5 1 6.28782 -5.24697e-09 -0.000535514
6 1 7.86 1.57143 1.57104
7 1 9.43252 1.37165e-07 -0.000498405
8 1 11.0049 1.5714 1.57114
9 1 12.5772 -9.20717e-08 -0.000441067
10 1 14.1496 1.57136 1.5713
11 1 15.7218 -3.43438e-07 -0.00036759
12 1 17.2941 1.57134 1.5714
13 1 18.8659 3.72508e-07 -0.000338087
14 1 20.4374 1.57171 1.57167
15 1 4.89345e-05 3.14378 -0.000396923
16 1 1.57159 4.71577 1.57121
17 1 3.14333 3.14351 -0.000769675
18 1 4.71463 4.71476 1.56983
19 1 6.28779 3.14341 -0.000753643
20 1 7.85985 4.71469 1.57016
21 1 9.43254 3.14325 -0.000709192
22 1 11.0051 4.7145 1.57017
23 1 12.5774 3.14315 -0.000686137
24 1 14.1506 4.71425 1.57009
25 1 15.7222 3.14308 -0.000646163
26 1 17.2956 4.71427 1.57041
27 1 18.8664 3.14333 -0.000476867
28 1 20.4383 4.71554 1.57141
29 1 0.000782227 6.28811 -0.000352297
30 1 1.57249 7.86039 1.5715
31 1 3.14417 6.28828 -0.000485513
32 1 4.71616 7.86056 1.5712
33 1 6.28799 6.2878 -0.0012011
34 1 7.86045 7.85984 1.56961
35 1 9.43265 6.28727 -0.00123316
36 1 11.0054 7.85894 1.56879
37 1 12.5779 6.28705 -0.00142452
38 1 14.1522 7.85832 1.56763
39 1 15.7234 6.28675 -0.0015045
40 1 17.2963 7.85923 1.57011
41 1 18.8672 6.28755 -0.000618886
42 1 20.4391 7.86004 1.57131
43 1 0.00123971 9.43254 -0.000348053
44 1 1.5728 11.0048 1.57154
45 1 3.14467 9.43265 -0.000332993
46 1 4.71648 11.0048 1.57143
47 1 6.28876 9.43277 -0.00033034
48 1 7.86112 11.0048 1.57207
49 1 9.43332 9.43268 -0.000565963
50 1 11.006 11.0048 1.57107
51 1 12.5783 9.43233 -0.00190694
52 1 14.1531 11.0048 1.56747
53 1 15.724 9.43196 -0.00163144
54 1 17.2966 11.0048 1.57001
55 1 18.8676 9.4323 -0.000698582
56 1 20.4394 11.0048 1.57126
57 1 0.00123933 12.577 -0.000347938
58 1 1.57249 14.1492 1.5715
59 1 3.14467 12.5769 -0.000332983
60 1 4.71616 14.149 1.5712
61 1 6.28876 12.5768 -0.000331121
62 1 7.86045 14.1497 1.56961
63 1 9.43332 12.5769 -0.000566064
64 1 11.0054 14.1506 1.56879
65 1 12.5783 12.5772 -0.00190712
66 1 14.1522 14.1512 1.56763
67 1 15.724 12.5776 -0.0016313
68 1 17.2963 14.1503 1.57011
69 1 18.8676 12.5773 -0.000698547
70 1 20.4391 14.1495 1.57131
71 1 0.000782051 15.7214 -0.000352228
72 1 1.57159 17.2938 1.57121
73 1 3.14417 15.7213 -0.000485677
74 1 4.71463 17.2948 1.56983
75 1 6.28799 15.7217 -0.00120154
76 1 7.85985 17.2949 1.57016
77 1 9.43265 15.7223 -0.00123396
78 1 11.0051 17.2951 1.57017
79 1 12.5779 15.7225 -0.00142442
80 1 14.1506 17.2953 1.57009
81 1 15.7234 15.7228 -0.00150414
82 1 17.2956 17.2953 1.57041
83 1 18.8672 15.722 -0.000619339
84 1 20.4384 17.294 1.57141
85 1 5.00365e-05 18.8658 -0.000396888
86 1 1.571 20.4379 1.57122
87 1 3.14333 18.866 -0.00077014
88 1 4.71519 20.4381 1.57097
89 1 6.28779 18.8661 -0.000753867
90 1 7.86 20.4381 1.57104
91 1 9.43254 18.8663 -0.000709493
92 1 11.0049 20.4381 1.57114
93 1 12.5774 18.8664 -0.00068609
94 1 14.1496 20.4382 1.5713
95 1 15.7222 18.8665 -0.000646742
96 1 17.2941 20.4382 1.5714
97 1 18.8664 18.8662 -0.000476176
98 1 20.4374 20.4378 1.57167
99 1 -0.00100152 -2.55002e-07 3.14366
100 1 1.57027 1.57149 4.71544
101 1 3.1425 4.64653e-08 3.14294
102 1 4.71404 1.57061 4.71464
103 1 6.28733 -2.46808e-08 3.14293
104 1 7.85956 1.57069 4.71494
105 1 9.43236 -1.31603e-07 3.14308
106 1 11.0048 1.57088 4.71516
107 1 12.5772 2.66706e-07 3.14331
108 1 14.1494 1.57091 4.71569
109 1 15.7217 4.51202e-07 3.1436
110 1 17.2933 1.57162 4.71617
111 1 18.8653 -8.42239e-09 3.14395
112 1 20.4367 1.57176 4.716
113 1 -0.000913793 3.14352 3.14343
114 1 1.56971 4.71493 4.71487
115 1 3.14185 3.14252 3.14217
116 1 4.71087 4.71141 4.71144
117 1 6.28685 3.1422 3.14213
118 1 7.85837 4.71165 4.71279
119 1 9.43229 3.14228 3.14238
120 1 11.0053 4.71223 4.71293
121 1 12.5776 3.14227 3.14258
122 1 14.1525 4.71105 4.71277
123 1 15.7228 3.14194 3.14265
124 1 17.2947 4.71481 4.71557
125 1 18.8658 3.14332 3.14366
126 1 20.4372 4.7156 4.71584
127 1 0.000258578 6.28795 3.14349
128 1 1.57147 7.86039 4.71566
129 1 3.14278 6.28768 3.1427
130 1 4.71376 7.85988 4.71442
131 1 6.28498 6.28487 3.13893
132 1 7.85402 7.85272 4.70524
133 1 9.43214 6.28504 3.14012
134 1 11.0062 7.85446 4.70636
135 1 12.5791 6.2849 3.13954
136 1 14.163 7.84808 4.70259
137 1 15.7266 6.28355 3.13929
138 1 17.2984 7.85816 4.71357
139 1 18.8677 6.28698 3.14282
140 1 20.4388 7.86003 4.71562
141 1 0.000985476 9.43249 3.14347
142 1 1.57209 11.0048 4.71555
143 1 3.14401 9.43259 3.14334
144 1 4.71535 11.0048 4.71483
145 1 6.28846 9.43312 3.14345
146 1 7.86312 11.0048 4.71864
147 1 9.43393 9.43214 3.14236
148 1 11.0106 11.0048 4.71941
149 1 12.5813 9.43095 3.13517
150 1 14.1609 11.0048 4.70494
151 1 15.7267 9.43094 3.1394
152 1 17.2989 11.0048 4.71309
153 1 18.8684 9.43208 3.14258
154 1 20.4394 11.0048 4.71542
155 1 0.00098555 12.5771 3.14347
156 1 1.57147 14.1492 4.71566
157 1 3.14401 12.577 3.14334
158 1 4.71376 14.1497 4.71442
159 1 6.28846 12.5764 3.14345
160 1 7.85402 14.1568 4.70524
161 1 9.43393 12.5774 3.14237
162 1 11.0062 14.1551 4.70636
163 1 12.5813 12.5786 3.13517
164 1 14.163 14.1615 4.70259
165 1 15.7267 12.5786 3.1394
166 1 17.2985 14.1514 4.71357
167 1 18.8684 12.5775 3.14257
168 1 20.4388 14.1495 4.71562
169 1 0.000258957 15.7216 3.14349
170 1 1.56971 17.2946 4.71487
171 1 3.14278 15.7219 3.1427
172 1 4.71087 17.2981 4.71144
173 1 6.28498 15.7247 3.13893
174 1 7.85837 17.2979 4.71279
175 1 9.43214 15.7245 3.14012
176 1 11.0053 17.2973 4.71293
177 1 12.5791 15.7246 3.13954
178 1 14.1525 17.2985 4.71277
179 1 15.7266 15.726 3.1393
180 1 17.2947 17.2947 4.71557
181 1 18.8677 15.7226 3.14282
182 1 20.4372 17.2939 4.71584
183 1 -0.000913704 18.866 3.14343
184 1 1.57027 20.4381 4.71544
185 1 3.14185 18.867 3.14217
186 1 4.71404 20.4389 4.71464
187 1 6.28685 18.8674 3.14214
188 1 7.85956 20.4389 4.71494
189 1 9.43229 18.8673 3.14238
190 1 11.0048 20.4387 4.71516
191 1 12.5776 18.8673 3.14258
192 1 14.1494 20.4386 4.71569
193 1 15.7228 18.8676 3.14264
194 1 17.2933 20.4379 4.71617
195 1 18.8658 18.8662 3.14366
196 1 20.4367 20.4378 4.716
197 1 -0.00157867 -5.93125e-08 6.28805
198 1 1.56979 1.57141 7.86019
199 1 3.14187 -4.24563e-08 6.28756
200 1 4.71343 1.57048 7.85985
201 1 6.28666 -2.34694e-08 6.28746
202 1 7.85912 1.5702 7.86022
203 1 9.43215 5.63124e-07 6.28774
204 1 11.0041 1.57155 7.86057
205 1 12.5766 -1.35589e-07 6.28828
206 1 14.1487 1.57178 7.86066
207 1 15.7209 2.24364e-07 6.28848
208 1 17.2928 1.57178 7.86054
209 1 18.8647 2.65703e-07 6.28833
210 1 20.4362 1.57176 7.86043
211 1 -0.00163991 3.14342 6.28794
212 1 1.56907 4.71469 7.85997
213 1 3.14115 3.14222 6.28712
214 1 4.71077 4.71151 7.85883
215 1 6.2852 3.13974 6.28621
216 1 7.85616 4.70728 7.85884
217 1 9.43204 3.1409 6.28683
218 1 11.0035 4.71447 7.86003
219 1 12.577 3.14172 6.28772
220 1 14.149 4.71556 7.86101
221 1 15.7213 3.14331 6.28844
222 1 17.2934 4.71545 7.86048
223 1 18.8649 3.14361 6.28828
224 1 20.4365 4.71558 7.86037
225 1 -0.00140158 6.28773 6.28792
226 1 1.56933 7.85991 7.86025
227 1 3.13899 6.28568 6.28604
228 1 4.7057 7.85582 7.858
229 1 6.27444 6.2747 6.27597
230 1 7.81959 7.82244 7.82705
231 1 9.43122 6.27848 6.28235
232 1 11.0194 7.85203 7.8358
233 1 12.5834 6.27735 6.28062
234 1 14.152 7.85987 7.86235
235 1 15.7237 6.28653 6.28777
236 1 17.2944 7.86008 7.86104
237 1 18.866 6.28777 6.28828
238 1 20.4372 7.86024 7.86056
239 1 0.000247226 9.43267 6.28813
240 1 1.57212 11.0048 7.86036
241 1 3.14307 9.43315 6.28797
242 1 4.71951 11.0048 7.86125
243 1 6.28541 9.43446 6.28777
244 1 7.88352 11.0048 7.87004
245 1 9.41806 9.40791 6.27991
246 1 11.0819 11.0048 7.62819
247 1 12.6178 9.39915 6.25033
248 1 14.1562 11.0048 7.8522
249 1 15.7317 9.43011 6.28371
250 1 17.2953 11.0048 7.86063
251 1 18.8681 9.43236 6.2878
252 1 20.438 11.0048 7.8606
253 1 0.000246958 12.5769 6.28813
254 1 1.56933 14.1496 7.86025
255 1 3.14307 12.5764 6.28797
256 1 4.7057 14.1537 7.858
257 1 6.28541 12.5751 6.28777
258 1 7.81959 14.1871 7.82705
259 1 9.41806 12.6016 6.27991
260 1 11.0194 14.1575 7.8358
261 1 12.6178 12.6104 6.25033
262 1 14.152 14.1497 7.86235
263 1 15.7317 12.5794 6.28371
264 1 17.2944 14.1495 7.86104
265 1 18.8681 12.5772 6.2878
266 1 20.4372 14.1493 7.86056
267 1 -0.00140159 15.7218 6.28792
268 1 1.56908 17.2949 7.85997
269 1 3.13899 15.7239 6.28604
270 1 4.71077 17.298 7.85883
271 1 6.27444 15.7348 6.27597
272 1 7.85616 17.3023 7.85884
273 1 9.43122 15.7311 6.28235
274 1 11.0035 17.2951 7.86003
275 1 12.5834 15.7322 6.28062
276 1 14.149 17.294 7.86101
277 1 15.7237 15.723 6.28777
278 1 17.2934 17.2941 7.86048
279 1 18.866 15.7218 6.28828
280 1 20.4365 17.294 7.86037
281 1 -0.00163958 18.8661 6.28794
282 1 1.56979 20.4381 7.86019
283 1 3.14115 18.8673 6.28712
284 1 4.71343 20.4391 7.85985
285 1 6.2852 18.8698 6.28621
286 1 7.85912 20.4393 7.86022
287 1 9.43204 18.8686 6.28683
288 1 11.0041 20.438 7.86057
289 1 12.577 18.8678 6.28772
290 1 14.1487 20.4378 7.86066
291 1 15.7213 18.8662 6.28844
292 1 17.2928 20.4378 7.86054
293 1 18.8649 18.8659 6.28827
294 1 20.4362 20.4378 7.86042
295 1 -0.00180784 -1.14465e-07 9.43266
296 1 1.56979 1.57141 11.0051
297 1 3.14159 2.83332e-07 9.43266
298 1 4.71343 1.57048 11.0055
299 1 6.28613 5.63107e-07 9.43266
300 1 7.85912 1.5702 11.0051
301 1 9.43189 1.85724e-07 9.43266
302 1 11.0041 1.57155 11.0048
303 1 12.5764 5.48233e-07 9.43266
304 1 14.1487 1.57178 11.0047
305 1 15.7207 -7.3431e-08 9.43266
306 1 17.2928 1.57178 11.0048
307 1 18.8644 -5.78593e-07 9.43266
308 1 20.4362 1.57176 11.0049
309 1 -0.00191771 3.14337 9.43266
310 1 1.56907 4.71469 11.0054
311 1 3.14081 3.14212 9.43266
312 1 4.71077 4.71151 11.0065
313 1 6.28432 3.13958 9.43266
314 1 7.85616 4.70728 11.0065
315 1 9.43141 3.14318 9.43266
316 1 11.0035 4.71447 11.0053
317 1 12.5763 3.14418 9.43266
318 1 14.149 4.71556 11.0043
319 1 15.721 3.14354 9.43266
320 1 17.2934 4.71545 11.0048
321 1 18.8646 3.14365 9.43266
322 1 20.4365 4.71558 11.005
323 1 -0.00191917 6.28753 9.43266
324 1 1.56933 7.85991 11.0051
325 1 3.13855 6.2852 9.43266
326 1 4.7057 7.85582 11.0073
327 1 6.27655 6.27705 9.43266
328 1 7.81959 7.82244 11.0383
329 1 9.42683 6.29151 9.43266
330 1 11.0194 7.85203 11.0295
331 1 12.5743 6.29075 9.43266
332 1 14.152 7.85987 11.003
333 1 15.7221 6.28694 9.43266
334 1 17.2944 7.86008 11.0043
335 1 18.8653 6.28766 9.43266
336 1 20.4372 7.86024 11.0048
337 1 -0.000593839 9.43271 9.43266
338 1 1.57212 11.0048 11.005
339 1 3.14217 9.43274 9.43266
340 1 4.71951 11.0048 11.0041
341 1 6.28126 9.42432 9.43266
342 1 7.88352 11.0048 10.9953
343 1 9.35555 9.20031 9.43266
344 1 11.0819 11.0048 11.2371
345 1 12.5539 9.44215 9.43266
346 1 14.1562 11.0048 11.0131
347 1 15.7179 9.43337 9.43266
348 1 17.2953 11.0048 11.0047
349 1 18.8653 9.43247 9.43266
350 1 20.438 11.0048 11.0047
351 1 -0.000593809 12.5768 9.43266
352 1 1.56933 14.1496 11.0051
353 1 3.14217 12.5768 9.43266
354 1 4.7057 14.1537 11.0073
355 1 6.28126 12.5852 9.43266
356 1 7.81959 14.1871 11.0383
357 1 9.35555 12.8092 9.43266
358 1 11.0194 14.1575 11.0295
359 1 12.5539 12.5674 9.43266
360 1 14.152 14.1497 11.003
361 1 15.7179 12.5762 9.43266
362 1 17.2944 14.1495 11.0043
363 1 18.8653 12.5771 9.43266
364 1 20.4372 14.1493 11.0048
365 1 -0.0019198 15.722 9.43266
366 1 1.56908 17.2949 11.0054
367 1 3.13855 15.7243 9.43266
368 1 4.71077 17.298 11.0065
369 1 6.27655 15.7325 9.43266
370 1 7.85616 17.3023 11.0065
371 1 9.42683 15.718 9.43266
372 1 11.0035 17.2951 11.0053
373 1 12.5743 15.7188 9.43266
374 1 14.149 17.294 11.0043
375 1 15.7221 15.7226 9.43266
376 1 17.2934 17.2941 11.0048
377 1 18.8653 15.7219 9.43266
378 1 20.4365 17.294 11.005
379 1 -0.00191916 18.8662 9.43266
380 1 1.56979 20.4381 11.0051
381 1 3.14081 18.8674 9.43266
382 1 4.71343 20.4391 11.0055
383 1 6.28432 18.87 9.43266
384 1 7.85912 20.4393 11.0051
385 1 9.43142 18.8664 9.43266
386 1 11.0041 20.438 11.0048
387 1 12.5763 18.8654 9.43266
388 1 14.1487 20.4378 11.0047
389 1 15.721 18.866 9.43266
390 1 17.2928 20.4378 11.0048
391 1 18.8646 18.8659 9.43266
392 1 20.4362 20.4378 11.0049
393 1 -0.00157867 -5.93125e-08 12.5773
394 1 1.57027 1.57149 14.1499
395 1 3.14187 -4.24563e-08 12.5778
396 1 4.71404 1.57061 14.1507
397 1 6.28666 -2.34694e-08 12.5779
398 1 7.85956 1.57069 14.1504
399 1 9.43215 5.63124e-07 12.5776
400 1 11.0048 1.57088 14.1502
401 1 12.5766 -1.35589e-07 12.577
402 1 14.1494 1.57091 14.1496
403 1 15.7209 2.24364e-07 12.5768
404 1 17.2933 1.57162 14.1492
405 1 18.8647 2.65703e-07 12.577
406 1 20.4367 1.57176 14.1493
407 1 -0.00163991 3.14342 12.5774
408 1 1.56971 4.71493 14.1505
409 1 3.14115 3.14222 12.5782
410 1 4.71087 4.71141 14.1539
411 1 6.2852 3.13974 12.5791
412 1 7.85837 4.71165 14.1525
413 1 9.43204 3.1409 12.5785
414 1 11.0053 4.71223 14.1524
415 1 12.577 3.14172 12.5776
416 1 14.1525 4.71105 14.1526
417 1 15.7213 3.14331 12.5769
418 1 17.2947 4.71481 14.1498
419 1 18.8649 3.14361 12.5771
420 1 20.4372 4.7156 14.1495
421 1 -0.00140158 6.28773 12.5774
422 1 1.57147 7.86039 14.1497
423 1 3.13899 6.28568 12.5793
424 1 4.71376 7.85988 14.1509
425 1 6.27444 6.2747 12.5894
426 1 7.85402 7.85272 14.1601
427 1 9.43122 6.27848 12.583
428 1 11.0062 7.85446 14.159
429 1 12.5834 6.27735 12.5847
430 1 14.163 7.84808 14.1627
431 1 15.7237 6.28653 12.5776
432 1 17.2984 7.85816 14.1518
433 1 18.866 6.28777 12.577
434 1 20.4388 7.86003 14.1497
435 1 0.000247226 9.43267 12.5772
436 1 1.57209 11.0048 14.1498
437 1 3.14307 9.43315 12.5774
438 1 4.71535 11.0048 14.1505
439 1 6.28541 9.43446 12.5776
440 1 7.86312 11.0048 14.1467
441 1 9.41806 9.40791 12.5854
442 1 11.0106 11.0048 14.1459
443 1 12.6178 9.39915 12.615
444 1 14.1609 11.0048 14.1604
445 1 15.7317 9.43011 12.5816
446 1 17.2989 11.0048 14.1522
447 1 18.8681 9.43236 12.5775
448 1 20.4394 11.0048 14.1499
449 1 0.000246958 12.5769 12.5772
450 1 1.57147 14.1492 14.1497
451 1 3.14307 12.5764 12.5774
452 1 4.71376 14.1497 14.1509
453 1 6.28541 12.5751 12.5776
454 1 7.85402 14.1568 14.1601
455 1 9.41806 12.6016 12.5854
456 1 11.0062 14.1551 14.159
457 1 12.6178 12.6104 12.615
458 1 14.163 14.1615 14.1627
459 1 15.7317 12.5794 12.5816
460 1 17.2985 14.1514 14.1518
461 1 18.8681 12.5772 12.5775
462 1 20.4388 14.1495 14.1497
463 1 -0.00140159 15.7218 12.5774
464 1 1.56971 17.2946 14.1505
465 1 3.13899 15.7239 12.5793
466 1 4.71087 17.2981 14.1539
467 1 6.27444 15.7348 12.5894
468 1 7.85837 17.2979 14.1525
469 1 9.43122 15.7311 12.583
470 1 11.0053 17.2973 14.1524
471 1 12.5834 15.7322 12.5847
472 1 14.1525 17.2985 14.1526
473 1 15.7237 15.723 12.5776
474 1 17.2947 17.2947 14.1498
475 1 18.866 15.7218 12.577
476 1 20.4372 17.2939 14.1495
477 1 -0.00163958 18.8661 12.5774
478 1 1.57027 20.4381 14.1499
479 1 3.14115 18.8673 12.5782
480 1 4.71404 20.4389 14.1507
481 1 6.2852 18.8698 12.5791
482 1 7.85956 20.4389 14.1504
483 1 9.43204 18.8686 12.5785
484 1 11.0048 20.4387 14.1502
485 1 12.577 18.8678 12.5776
486 1 14.1494 20.4386 14.1496
487 1 15.7213 18.8662 12.5769
488 1 17.2933 20.4379 14.1492
489 1 18.8649 18.8659 12.5771
490 1 20.4367 20.4378 14.1493
491 1 -0.00100152 -2.55002e-07 15.7217
492 1 1.571 1.57163 17.2941
493 1 3.1425 4.64653e-08 15.7224
494 1 4.71519 1.57146 17.2944
495 1 6.28733 -2.46808e-08 15.7224
496 1 7.86 1.57143 17.2943
497 1 9.43236 -1.31603e-07 15.7222
498 1 11.0049 1.5714 17.2942
499 1 12.5772 2.66706e-07 15.722
500 1 14.1496 1.57136 17.294
501 1 15.7217 4.51202e-07 15.7217
502 1 17.2941 1.57134 17.2939
503 1 18.8653 -8.4224e-09 15.7214
504 1 20.4374 1.57171 17.2937
505 1 -0.000913793 3.14352 15.7219
506 1 1.57159 4.71577 17.2941
507 1 3.14185 3.14252 15.7232
508 1 4.71463 4.71476 17.2955
509 1 6.28685 3.1422 15.7232
510 1 7.85985 4.71469 17.2952
511 1 9.43229 3.14228 15.7229
512 1 11.0051 4.7145 17.2952
513 1 12.5776 3.14227 15.7227
514 1 14.1506 4.71425 17.2952
515 1 15.7228 3.14194 15.7227
516 1 17.2956 4.71427 17.2949
517 1 18.8658 3.14332 15.7217
518 1 20.4383 4.71554 17.2939
519 1 0.000258578 6.28795 15.7218
520 1 1.57249 7.86039 17.2938
521 1 3.14278 6.28768 15.7226
522 1 4.71616 7.86056 17.2941
523 1 6.28498 6.28487 15.7264
524 1 7.86045 7.85984 17.2957
525 1 9.43214 6.28504 15.7252
526 1 11.0054 7.85894 17.2965
527 1 12.5791 6.2849 15.7258
528 1 14.1522 7.85832 17.2977
529 1 15.7266 6.28355 15.726
530 1 17.2963 7.85923 17.2952
531 1 18.8677 6.28698 15.7225
532 1 20.4391 7.86004 17.294
533 1 0.000985476 9.43249 15.7219
534 1 1.5728 11.0048 17.2938
535 1 3.14401 9.43259 15.722
536 1 4.71648 11.0048 17.2939
537 1 6.28846 9.43312 15.7219
538 1 7.86112 11.0048 17.2933
539 1 9.43393 9.43214 15.723
540 1 11.006 11.0048 17.2943
541 1 12.5813 9.43095 15.7302
542 1 14.1531 11.0048 17.2979
543 1 15.7267 9.43094 15.7259
544 1 17.2966 11.0048 17.2953
545 1 18.8684 9.43208 15.7228
546 1 20.4394 11.0048 17.2941
547 1 0.00098555 12.5771 15.7219
548 1 1.57249 14.1492 17.2938
549 1 3.14401 12.577 15.722
550 1 4.71616 14.149 17.2941
551 1 6.28846 12.5764 15.7219
552 1 7.86045 14.1497 17.2957
553 1 9.43393 12.5774 15.723
554 1 11.0054 14.1506 17.2965
555 1 12.5813 12.5786 15.7302
556 1 14.1522 14.1512 17.2977
557 1 15.7267 12.5786 15.7259
558 1 17.2963 14.1503 17.2952
559 1 18.8684 12.5775 15.7228
560 1 20.4391 14.1495 17.294
561 1 0.000258957 15.7216 15.7218
562 1 1.57159 17.2938 17.2941
563 1 3.14278 15.7219 15.7226
564 1 4.71463 17.2948 17.2955
565 1 6.28498 15.7247 15.7264
566 1 7.85985 17.2949 17.2952
567 1 9.43214 15.7245 15.7252
568 1 11.0051 17.2951 17.2952
569 1 12.5791 15.7246 15.7258
570 1 14.1506 17.2953 17.2952
571 1 15.7266 15.726 15.726
572 1 17.2956 17.2953 17.2949
573 1 18.8677 15.7226 15.7225
574 1 20.4384 17.294 17.2939
575 1 -0.000913704 18.866 15.7219
576 1 1.571 20.4379 17.2941
577 1 3.14185 18.867 15.7232
578 1 4.71519 20.4381 17.2944
579 1 6.28685 18.8674 15.7232
580 1 7.86 20.4381 17.2943
581 1 9.43229 18.8673 15.7229
582 1 11.0049 20.4381 17.2942
583 1 12.5776 18.8673 15.7227
584 1 14.1496 20.4382 17.294
585 1 15.7228 18.8676 15.7227
586 1 17.2941 20.4382 17.2939
587 1 18.8658 18.8662 15.7217
588 1 20.4374 20.4378 17.2937
589 1 -0.000371424 -1.56148e-07 18.8657
590 1 1.57156 1.57177 20.4374
591 1 3.14339 -6.15201e-07 18.8658
592 1 4.71566 1.57174 20.4374
593 1 6.28782 -5.24697e-09 18.8659
594 1 7.8602 1.57167 20.4374
595 1 9.43252 1.37165e-07 18.8658
596 1 11.0049 1.57161 20.4374
597 1 12.5772 -9.20717e-08 18.8658
598 1 14.1496 1.57158 20.4374
599 1 15.7218 -3.43438e-07 18.8657
600 1 17.294 1.57159 20.4374
601 1 18.8659 3.72508e-07 18.8657
602 1 20.4378 1.57178 20.4374
603 1 4.89345e-05 3.14378 18.8657
604 1 1.57216 4.71606 20.4374
605 1 3.14333 3.14351 18.8661
606 1 4.71572 4.71571 20.4374
607 1 6.28779 3.14341 18.8661
608 1 7.86022 4.71542 20.4374
609 1 9.43254 3.14325 18.866
610 1 11.0051 4.71519 20.4374
611 1 12.5774 3.14315 18.866
612 1 14.1501 4.71505 20.4374
613 1 15.7222 3.14308 18.866
614 1 17.2949 4.71505 20.4374
615 1 18.8664 3.14333 18.8658
616 1 20.4384 4.71577 20.4374
617 1 0.000782227 6.28811 18.8657
618 1 1.57277 7.86044 20.4374
619 1 3.14417 6.28828 18.8658
620 1 4.71651 7.86059 20.4374
621 1 6.28799 6.2878 18.8665
622 1 7.8608 7.86039 20.4374
623 1 9.43265 6.28727 18.8666
624 1 11.0053 7.85985 20.4374
625 1 12.5779 6.28705 18.8668
626 1 14.1508 7.85957 20.4374
627 1 15.7234 6.28675 18.8668
628 1 17.2956 7.85967 20.4374
629 1 18.8672 6.28755 18.8659
630 1 20.439 7.86016 20.4374
631 1 0.00123971 9.43254 18.8657
632 1 1.573 11.0048 20.4374
633 1 3.14467 9.43265 18.8657
634 1 4.71675 11.0048 20.4374
635 1 6.28876 9.43277 18.8657
636 1 7.861 11.0048 20.4374
637 1 9.43332 9.43268 18.8659
638 1 11.0055 11.0048 20.4374
639 1 12.5783 9.43233 18.8672
640 1 14.1513 11.0048 20.4374
641 1 15.724 9.43196 18.867
642 1 17.2958 11.0048 20.4374
643 1 18.8676 9.4323 18.866
644 1 20.4392 11.0048 20.4374
645 1 0.00123933 12.577 18.8657
646 1 1.57277 14.1491 20.4374
647 1 3.14467 12.5769 18.8657
648 1 4.71651 14.149 20.4374
649 1 6.28876 12.5768 18.8657
650 1 7.8608 14.1492 20.4374
651 1 9.43332 12.5769 18.8659
652 1 11.0053 14.1497 20.4374
653 1 12.5783 12.5772 18.8672
654 1 14.1508 14.15 20.4374
655 1 15.724 12.5776 18.867
656 1 17.2956 14.1499 20.4374
657 1 18.8676 12.5773 18.866
658 1 20.439 14.1494 20.4374
659 1 0.000782051 15.7214 18.8657
660 1 1.57216 17.2935 20.4374
661 1 3.14417 15.7213 18.8658
662 1 4.71572 17.2938 20.4374
663 1 6.28799 15.7217 18.8665
664 1 7.86022 17.2941 20.4374
665 1 9.43265 15.7223 18.8666
666 1 11.0051 17.2944 20.4374
667 1 12.5779 15.7225 18.8668
668 1 14.1501 17.2945 20.4374
669 1 15.7234 15.7228 18.8668
670 1 17.2949 17.2945 20.4374
671 1 18.8672 15.722 18.8659
672 1 20.4384 17.2938 20.4374
673 1 5.00365e-05 18.8658 18.8657
674 1 1.57156 20.4378 20.4374
675 1 3.14333 18.866 18.8661
676 1 4.71566 20.4378 20.4374
677 1 6.28779 18.8661 18.8661
678 1 7.8602 20.4379 20.4374
679 1 9.43254 18.8663 18.866
680 1 11.0049 20.4379 20.4374
681 1 12.5774 18.8664 18.866
682 1 14.1496 20.438 20.4374
683 1 15.7222 18.8665 18.866
684 1 17.294 20.438 20.4374
685 1 18.8664 18.8662 18.8658
686 1 20.4378 20.4378 20.4374
687 3 10.2187 11.0048 9.43266
