ITEM: TIMESTEP
28
ITEM: NUMBER OF ATOMS
687
ITEM: BOX BOUNDS pp pp pp
0.0000000000000000e+00 2.2009546999999998e+01
0.0000000000000000e+00 2.2009546999999998e+01
0.0000000000000000e+00 2.2009546999999998e+01
ITEM: ATOMS id type xu yu zu
1 1 -3.17455e-08 -0.000299543 -0.000329006
2 1 1.57164 1.57118 1.57122
3 1 3.14378 -3.45629e-05 -0.000401074
4 1 4.71579 1.57149 1.5712
5 1 6.2881 0.000345544 -0.000364232
6 1 7.8604 1.57201 1.57145
7 1 9.43253 0.00051844 -0.000364636
8 1 11.0048 1.57217 1.57149
9 1 12.577 0.00051842 -0.000364649
10 1 14.1492 1.57201 1.57145
11 1 15.7214 0.000345538 -0.000364244
12 1 17.2938 1.57149 1.5712
13 1 18.8658 -3.45593e-05 -0.000401066
14 1 20.4379 1.57118 1.57122
15 1 -9.28729e-09 3.14355 -0.000509486
16 1 1.57149 4.71542 1.571
17 1 3.14353 3.14334 -0.000767615
18 1 4.71481 4.71457 1.56983
19 1 6.28831 3.14382 -0.000499135
20 1 7.86061 4.71574 1.57118
21 1 9.43266 3.14403 -0.000358782
22 1 11.0048 4.7159 1.57141
23 1 12.5769 3.14403 -0.00035865
24 1 14.1489 4.71575 1.57118
25 1 15.7212 3.14382 -0.000498683
26 1 17.2947 4.71457 1.56983
27 1 18.866 3.14334 -0.000767083
28 1 20.4381 4.71542 1.571
29 1 2.57698e-09 6.28798 -0.000503647
30 1 1.57146 7.86017 1.57111
31 1 3.14347 6.28781 -0.000730522
32 1 4.71478 7.85977 1.57021
33 1 6.28787 6.28768 -0.00119232
34 1 7.85991 7.86005 1.56966
35 1 9.4328 6.28818 -0.000327656
36 1 11.0048 7.86059 1.57211
37 1 12.5767 6.28818 -0.000326535
38 1 14.1496 7.86005 1.56966
39 1 15.7217 6.28768 -0.00119057
40 1 17.2948 7.85977 1.57021
41 1 18.8661 6.28781 -0.00073015
42 1 20.4381 7.86017 1.57111
43 1 -1.40552e-08 9.43258 -0.000453988
44 1 1.57144 11.005 1.57122
45 1 3.14333 9.43248 -0.000668527
46 1 4.71459 11.005 1.57025
47 1 6.28737 9.4323 -0.00119316
48 1 7.85902 11.005 1.56889
49 1 9.43273 9.43273 -0.000522036
50 1 11.0048 11.0055 1.57119
51 1 12.5768 9.43273 -0.00052096
52 1 14.1505 11.005 1.56889
53 1 15.7222 9.4323 -0.00119183
54 1 17.295 11.005 1.57025
55 1 18.8662 9.43248 -0.0006682
56 1 20.4381 11.005 1.57122
57 1 -2.03961e-08 12.5772 -0.000402567
58 1 1.57138 14.1496 1.57136
59 1 3.14322 12.5773 -0.000646006
60 1 4.7143 14.1504 1.57016
61 1 6.28713 12.5774 -0.00137628
62 1 7.85836 14.1517 1.56773
63 1 9.43237 12.5777 -0.00183943
64 1 11.0048 14.1525 1.56758
65 1 12.5772 12.5777 -0.00183858
66 1 14.1512 14.1517 1.56773
67 1 15.7224 12.5774 -0.00137569
68 1 17.2952 14.1504 1.57016
69 1 18.8663 12.5773 -0.000645772
70 1 20.4382 14.1496 1.57136
71 1 -5.00863e-09 15.7217 -0.000346674
72 1 1.57134 17.2941 1.57142
73 1 3.14311 15.722 -0.000622224
74 1 4.71428 17.2953 1.57045
75 1 6.28679 15.7229 -0.00146632
76 1 7.85923 17.2958 1.57017
77 1 9.43197 15.7233 -0.00158422
78 1 11.0048 17.296 1.57007
79 1 12.5776 15.7233 -0.00158425
80 1 14.1503 17.2958 1.57017
81 1 15.7228 15.7229 -0.00146634
82 1 17.2953 17.2953 1.57045
83 1 18.8664 15.722 -0.000622079
84 1 20.4382 17.2941 1.57142
85 1 -1.29041e-08 18.8658 -0.000332828
86 1 1.57171 20.4375 1.57167
87 1 3.14333 18.8663 -0.000471206
88 1 4.71552 20.4382 1.5714
89 1 6.28755 18.8667 -0.000608018
90 1 7.86004 20.4386 1.5713
91 1 9.43229 18.8669 -0.000684773
92 1 11.0048 20.4387 1.57126
93 1 12.5773 18.8669 -0.000684796
94 1 14.1495 20.4386 1.5713
95 1 15.722 18.8667 -0.000608
96 1 17.294 20.4382 1.5714
97 1 18.8662 18.8663 -0.000471255
98 1 20.4378 20.4375 1.57167
99 1 -1.81813e-08 -0.00066152 3.14365
100 1 1.5715 1.57078 4.71544
101 1 3.14351 -0.00072798 3.14341
102 1 4.71496 1.56992 4.71485
103 1 6.28794 8.14119e-05 3.14346
104 1 7.86042 1.57129 4.71561
105 1 9.43248 0.000519486 3.14342
106 1 11.0048 1.57175 4.71548
107 1 12.5771 0.000519621 3.14342
108 1 14.1491 1.57129 4.71561
109 1 15.7216 8.17587e-05 3.14346
110 1 17.2946 1.56992 4.71485
111 1 18.866 -0.000727325 3.14341
112 1 20.438 1.57078 4.71544
113 1 -5.7125e-07 3.1429 3.14296
114 1 1.57064 4.71455 4.71468
115 1 3.14255 3.14209 3.14217
116 1 4.7115 4.71108 4.71145
117 1 6.28773 3.14264 3.14267
118 1 7.85994 4.71357 4.71439
119 1 9.43262 3.14357 3.14328
120 1 11.0048 4.71502 4.71481
121 1 12.5769 3.14357 3.14328
122 1 14.1496 4.71358 4.7144
123 1 15.7218 3.14264 3.14267
124 1 17.298 4.71108 4.71145
125 1 18.867 3.1421 3.14217
126 1 20.4389 4.71455 4.71468
127 1 -4.63456e-07 6.2877 3.143
128 1 1.57073 7.86 4.71502
129 1 3.14226 6.28708 3.14219
130 1 4.71175 7.85854 4.71285
131 1 6.28497 6.28484 3.13897
132 1 7.85281 7.85387 4.70533
133 1 9.43315 6.28806 3.14345
134 1 11.0048 7.86281 4.71866
135 1 12.5764 6.28806 3.14345
136 1 14.1567 7.85387 4.70529
137 1 15.7246 6.28484 3.13897
138 1 17.2978 7.85855 4.71285
139 1 18.8673 6.28708 3.14219
140 1 20.4388 7.86 4.71502
141 1 -3.46475e-07 9.43264 3.14317
142 1 1.57092 11.0051 4.71525
143 1 3.14236 9.43245 3.14247
144 1 4.71233 11.0054 4.71305
145 1 6.28516 9.43199 3.14022
146 1 7.85453 11.0061 4.70649
147 1 9.43218 9.43355 3.14246
148 1 11.0048 11.0103 4.71954
149 1 12.5774 9.43355 3.14246
150 1 14.155 11.0061 4.70649
151 1 15.7244 9.43199 3.14022
152 1 17.2972 11.0054 4.71305
153 1 18.8672 9.43245 3.14248
154 1 20.4386 11.0051 4.71525
155 1 -3.0078e-07 12.5774 3.1434
156 1 1.57092 14.1498 4.71576
157 1 3.14232 12.5777 3.14267
158 1 4.71107 14.1526 4.71286
159 1 6.28496 12.5789 3.13965
160 1 7.8481 14.1629 4.70272
161 1 9.431 12.5809 3.13533
162 1 11.0048 14.1607 4.70508
163 1 12.5785 12.5809 3.13533
164 1 14.1614 14.1629 4.70272
165 1 15.7246 12.5789 3.13965
166 1 17.2985 14.1526 4.71286
167 1 18.8672 12.5777 3.14268
168 1 20.4386 14.1498 4.71576
169 1 -2.26846e-07 15.7219 3.14364
170 1 1.57161 17.2936 4.7162
171 1 3.14194 15.7229 3.1427
172 1 4.71478 17.2948 4.71562
173 1 6.28356 15.7264 3.13939
174 1 7.85813 17.2983 4.71366
175 1 9.43094 15.7263 3.13951
176 1 11.0048 17.2986 4.71317
177 1 12.5786 15.7263 3.13951
178 1 14.1514 17.2983 4.71365
179 1 15.726 15.7264 3.13939
180 1 17.2948 17.2948 4.71562
181 1 18.8676 15.7229 3.1427
182 1 20.4379 17.2936 4.7162
183 1 8.18108e-08 18.8655 3.14395
184 1 1.57175 20.4371 4.71599
185 1 3.14331 18.8659 3.14368
186 1 4.71557 20.4374 4.71583
187 1 6.28696 18.8675 3.14285
188 1 7.86001 20.4387 4.71562
189 1 9.43207 18.8679 3.14261
190 1 11.0048 20.439 4.71542
191 1 12.5775 18.8679 3.14261
192 1 14.1495 20.4387 4.71562
193 1 15.7226 18.8675 3.14285
194 1 17.294 20.4374 4.71583
195 1 18.8662 18.8659 3.14368
196 1 20.4378 20.4371 4.71599
197 1 -2.12017e-08 -0.000899325 6.28804
198 1 1.57143 1.57055 7.86018
199 1 3.14341 -0.00111672 6.28792
200 1 4.71472 1.56953 7.85996
201 1 6.28773 -0.00123519 6.2879
202 1 7.85994 1.5694 7.86023
203 1 9.43267 0.000112028 6.28809
204 1 11.0048 1.57201 7.86033
205 1 12.5769 0.000113265 6.28809
206 1 14.1496 1.56941 7.86023
207 1 15.7218 -0.00123231 6.2879
208 1 17.2948 1.56953 7.85996
209 1 18.8661 -0.00111616 6.28792
210 1 20.4381 1.57055 7.86018
211 1 -6.14237e-07 3.14256 6.28758
212 1 1.57052 4.71416 7.85986
213 1 3.14227 3.14168 6.28712
214 1 4.71162 4.71118 7.85883
215 1 6.28577 3.13914 6.28602
216 1 7.85592 4.70577 7.858
217 1 9.43319 3.14289 6.28793
218 1 11.0048 4.71934 7.86124
219 1 12.5764 3.14289 6.28793
220 1 14.1536 4.70574 7.858
221 1 15.7238 3.13914 6.28602
222 1 17.2979 4.71118 7.85883
223 1 18.8673 3.14168 6.28712
224 1 20.439 4.71416 7.85986
225 1 -2.00212e-06 6.28731 6.28752
226 1 1.57027 7.85978 7.86026
227 1 3.13984 6.2857 6.28625
228 1 4.70747 7.85655 7.85889
229 1 6.27488 6.27461 6.27605
230 1 7.82257 7.81963 7.82705
231 1 9.43445 6.28522 6.28775
232 1 11.0048 7.88361 7.87023
233 1 12.5751 6.28519 6.28772
234 1 14.187 7.81963 7.82705
235 1 15.7347 6.27456 6.27599
236 1 17.3021 7.85655 7.85889
237 1 18.8697 6.2857 6.28625
238 1 20.4393 7.85978 7.86026
239 1 -1.58721e-06 9.43271 6.28782
240 1 1.57159 11.0047 7.86062
241 1 3.141 9.43247 6.28691
242 1 4.71458 11.0039 7.86007
243 1 6.27861 9.43133 6.28243
244 1 7.85214 11.0195 7.83588
245 1 9.40798 9.41793 6.27999
246 1 11.0047 11.0819 7.62799
247 1 12.6016 9.41793 6.28
248 1 14.1575 11.0195 7.83585
249 1 15.7309 9.43135 6.28242
250 1 17.295 11.0039 7.86007
251 1 18.8685 9.43247 6.28691
252 1 20.438 11.0047 7.86062
253 1 -5.41955e-07 12.5771 6.28835
254 1 1.57178 14.1493 7.86069
255 1 3.14177 12.5774 6.2878
256 1 4.71557 14.1494 7.86105
257 1 6.27741 12.5836 6.28071
258 1 7.85985 14.1522 7.86237
259 1 9.39911 12.6178 6.25043
260 1 11.0048 14.1562 7.85228
261 1 12.6104 12.6179 6.2504
262 1 14.1496 14.1521 7.86246
263 1 15.7321 12.5836 6.2807
264 1 17.294 14.1494 7.86105
265 1 18.8678 12.5774 6.2878
266 1 20.4378 14.1493 7.86069
267 1 4.48577e-07 15.7214 6.28852
268 1 1.57175 17.2934 7.86055
269 1 3.14329 15.7217 6.2885
270 1 4.71539 17.2939 7.86051
271 1 6.28651 15.7239 6.28784
272 1 7.86004 17.2945 7.86108
273 1 9.43011 15.7317 6.28381
274 1 11.0048 17.2953 7.86066
275 1 12.5794 15.7317 6.28381
276 1 14.1495 17.2945 7.86108
277 1 15.723 15.7239 6.28784
278 1 17.2942 17.2939 7.8605
279 1 18.8663 15.7217 6.28849
280 1 20.4378 17.2934 7.86055
281 1 2.49538e-08 18.8653 6.28834
282 1 1.57175 20.4369 7.86042
283 1 3.14356 18.8654 6.28828
284 1 4.71553 20.4369 7.86037
285 1 6.28772 18.8661 6.28831
286 1 7.8602 20.4373 7.86056
287 1 9.43234 18.868 6.28783
288 1 11.0048 20.438 7.8606
289 1 12.5772 18.868 6.28783
290 1 14.1493 20.4373 7.86056
291 1 15.7218 18.8661 6.2883
292 1 17.294 20.4369 7.86037
293 1 18.866 18.8654 6.28828
294 1 20.4378 20.4369 7.86042
295 1 -7.891e-10 -0.000974118 9.43266
296 1 1.57143 1.57055 11.0051
297 1 3.14337 -0.00124541 9.43266
298 1 4.71472 1.56953 11.0054
299 1 6.28753 -0.0016066 9.43266
300 1 7.85994 1.5694 11.0051
301 1 9.43271 -0.000573657 9.43266
302 1 11.0048 1.57201 11.005
303 1 12.5768 -0.000571107 9.43266
304 1 14.1496 1.56941 11.0051
305 1 15.722 -0.0016036 9.43266
306 1 17.2948 1.56953 11.0054
307 1 18.8662 -0.0012447 9.43266
308 1 20.4381 1.57055 11.0051
309 1 -7.41208e-07 3.14242 9.43266
310 1 1.57052 4.71416 11.0055
311 1 3.14217 3.14146 9.43266
312 1 4.71162 4.71118 11.0065
313 1 6.28529 3.13882 9.43266
314 1 7.85592 4.70577 11.0073
315 1 9.43276 3.14212 9.43266
316 1 11.0048 4.71934 11.0041
317 1 12.5768 3.14211 9.43266
318 1 14.1536 4.70574 11.0073
319 1 15.7243 3.13882 9.43266
320 1 17.2979 4.71118 11.0065
321 1 18.8674 3.14146 9.43266
322 1 20.439 4.71416 11.0055
323 1 -2.26756e-06 6.2869 9.43266
324 1 1.57027 7.85978 11.0051
325 1 3.13969 6.28492 9.43266
326 1 4.70747 7.85655 11.0064
327 1 6.2772 6.2768 9.43266
328 1 7.82257 7.81963 11.0383
329 1 9.4244 6.28117 9.43266
330 1 11.0048 7.88361 10.9951
331 1 12.5852 6.28118 9.43266
332 1 14.187 7.81963 11.0383
333 1 15.7324 6.27678 9.43266
334 1 17.3021 7.85655 11.0064
335 1 18.8699 6.28492 9.43266
336 1 20.4393 7.85978 11.0051
337 1 -1.08076e-06 9.43258 9.43266
338 1 1.57159 11.0047 11.0047
339 1 3.1433 9.43196 9.43266
340 1 4.71458 11.0039 11.0053
341 1 6.29164 9.42712 9.43266
342 1 7.85214 11.0195 11.0294
343 1 9.20039 9.35545 9.43266
344 1 11.0047 11.0819 11.2373
345 1 12.8091 9.35542 9.43266
346 1 14.1575 11.0195 11.0295
347 1 15.7179 9.4271 9.43266
348 1 17.295 11.0039 11.0053
349 1 18.8662 9.43196 9.43266
350 1 20.438 11.0047 11.0047
351 1 4.27184e-08 12.5771 9.43266
352 1 1.57178 14.1493 11.0046
353 1 3.14422 12.5768 9.43266
354 1 4.71557 14.1494 11.0043
355 1 6.29078 12.5746 9.43266
356 1 7.85985 14.1522 11.003
357 1 9.44213 12.554 9.43266
358 1 11.0048 14.1562 11.013
359 1 12.5674 12.554 9.43266
360 1 14.1496 14.1521 11.0029
361 1 15.7187 12.5746 9.43266
362 1 17.294 14.1494 11.0043
363 1 18.8653 12.5768 9.43266
364 1 20.4378 14.1493 11.0046
365 1 4.98329e-07 15.7214 9.43266
366 1 1.57175 17.2934 11.0048
367 1 3.14352 15.7215 9.43266
368 1 4.71539 17.2939 11.0048
369 1 6.28692 15.7224 9.43266
370 1 7.86004 17.2945 11.0042
371 1 9.43335 15.7181 9.43266
372 1 11.0048 17.2953 11.0047
373 1 12.5762 15.718 9.43266
374 1 14.1495 17.2945 11.0042
375 1 15.7226 15.7224 9.43266
376 1 17.2942 17.2939 11.0048
377 1 18.866 15.7215 9.43266
378 1 20.4378 17.2934 11.0048
379 1 2.34218e-08 18.8652 9.43266
380 1 1.57175 20.4369 11.0049
381 1 3.1436 18.8653 9.43266
382 1 4.71553 20.4369 11.005
383 1 6.28759 18.8657 9.43266
384 1 7.8602 20.4373 11.0048
385 1 9.43244 18.8654 9.43266
386 1 11.0048 20.438 11.0047
387 1 12.5771 18.8654 9.43266
388 1 14.1493 20.4373 11.0048
389 1 15.722 18.8657 9.43266
390 1 17.294 20.4369 11.005
391 1 18.8659 18.8653 9.43266
392 1 20.4378 20.4369 11.0049
393 1 -2.12017e-08 -0.000899325 12.5773
394 1 1.5715 1.57078 14.1499
395 1 3.14341 -0.00111672 12.5774
396 1 4.71496 1.56992 14.1505
397 1 6.28773 -0.00123519 12.5774
398 1 7.86042 1.57129 14.1497
399 1 9.43267 0.000112028 12.5772
400 1 11.0048 1.57175 14.1498
401 1 12.5769 0.000113265 12.5772
402 1 14.1491 1.57129 14.1497
403 1 15.7218 -0.00123231 12.5774
404 1 17.2946 1.56992 14.1505
405 1 18.8661 -0.00111616 12.5774
406 1 20.438 1.57078 14.1499
407 1 -6.14237e-07 3.14256 12.5778
408 1 1.57064 4.71455 14.1506
409 1 3.14227 3.14168 12.5782
410 1 4.7115 4.71108 14.1539
411 1 6.28577 3.13914 12.5793
412 1 7.85994 4.71357 14.1509
413 1 9.43319 3.14289 12.5774
414 1 11.0048 4.71502 14.1505
415 1 12.5764 3.14289 12.5774
416 1 14.1496 4.71358 14.1509
417 1 15.7238 3.13914 12.5793
418 1 17.298 4.71108 14.1539
419 1 18.8673 3.14168 12.5782
420 1 20.4389 4.71455 14.1506
421 1 -2.00212e-06 6.28731 12.5778
422 1 1.57073 7.86 14.1503
423 1 3.13984 6.2857 12.5791
424 1 4.71175 7.85854 14.1525
425 1 6.27488 6.27461 12.5893
426 1 7.85281 7.85387 14.16
427 1 9.43445 6.28522 12.5776
428 1 11.0048 7.86281 14.1467
429 1 12.5751 6.28519 12.5776
430 1 14.1567 7.85387 14.16
431 1 15.7347 6.27456 12.5893
432 1 17.2978 7.85855 14.1525
433 1 18.8697 6.2857 12.5791
434 1 20.4388 7.86 14.1503
435 1 -1.58721e-06 9.43271 12.5775
436 1 1.57092 11.0051 14.1501
437 1 3.141 9.43247 12.5784
438 1 4.71233 11.0054 14.1523
439 1 6.27861 9.43133 12.5829
440 1 7.85453 11.0061 14.1588
441 1 9.40798 9.41793 12.5853
442 1 11.0048 11.0103 14.1458
443 1 12.6016 9.41793 12.5853
444 1 14.155 11.0061 14.1588
445 1 15.7309 9.43135 12.5829
446 1 17.2972 11.0054 14.1523
447 1 18.8685 9.43247 12.5784
448 1 20.4386 11.0051 14.1501
449 1 -5.41955e-07 12.5771 12.577
450 1 1.57092 14.1498 14.1496
451 1 3.14177 12.5774 12.5775
452 1 4.71107 14.1526 14.1525
453 1 6.27741 12.5836 12.5846
454 1 7.8481 14.1629 14.1626
455 1 9.39911 12.6178 12.6149
456 1 11.0048 14.1607 14.1602
457 1 12.6104 12.6179 12.6149
458 1 14.1614 14.1629 14.1626
459 1 15.7321 12.5836 12.5846
460 1 17.2985 14.1526 14.1525
461 1 18.8678 12.5774 12.5775
462 1 20.4386 14.1498 14.1496
463 1 4.48577e-07 15.7214 12.5768
464 1 1.57161 17.2936 14.1491
465 1 3.14329 15.7217 12.5768
466 1 4.71478 17.2948 14.1497
467 1 6.28651 15.7239 12.5775
468 1 7.85813 17.2983 14.1517
469 1 9.43011 15.7317 12.5815
470 1 11.0048 17.2986 14.1522
471 1 12.5794 15.7317 12.5815
472 1 14.1514 17.2983 14.1517
473 1 15.723 15.7239 12.5775
474 1 17.2948 17.2948 14.1497
475 1 18.8663 15.7217 12.5768
476 1 20.4379 17.2936 14.1491
477 1 2.49538e-08 18.8653 12.577
478 1 1.57175 20.4371 14.1493
479 1 3.14356 18.8654 12.577
480 1 4.71557 20.4374 14.1495
481 1 6.28772 18.8661 12.577
482 1 7.86001 20.4387 14.1497
483 1 9.43234 18.868 12.5775
484 1 11.0048 20.439 14.1499
485 1 12.5772 18.868 12.5775
486 1 14.1495 20.4387 14.1497
487 1 15.7218 18.8661 12.577
488 1 17.294 20.4374 14.1495
489 1 18.866 18.8654 12.577
490 1 20.4378 20.4371 14.1493
491 1 -1.81813e-08 -0.00066152 15.7217
492 1 1.57164 1.57118 17.2941
493 1 3.14351 -0.00072798 15.7219
494 1 4.71579 1.57149 17.2941
495 1 6.28794 8.14119e-05 15.7219
496 1 7.8604 1.57201 17.2939
497 1 9.43248 0.000519486 15.7219
498 1 11.0048 1.57217 17.2938
499 1 12.5771 0.000519621 15.7219
500 1 14.1492 1.57201 17.2939
501 1 15.7216 8.17587e-05 15.7219
502 1 17.2938 1.57149 17.2941
503 1 18.866 -0.000727325 15.7219
504 1 20.4379 1.57118 17.2941
505 1 -5.7125e-07 3.1429 15.7224
506 1 1.57149 4.71542 17.2943
507 1 3.14255 3.14209 15.7232
508 1 4.71481 4.71457 17.2955
509 1 6.28773 3.14264 15.7227
510 1 7.86061 4.71574 17.2941
511 1 9.43262 3.14357 15.722
512 1 11.0048 4.7159 17.2939
513 1 12.5769 3.14357 15.722
514 1 14.1489 4.71575 17.2941
515 1 15.7218 3.14264 15.7227
516 1 17.2947 4.71457 17.2955
517 1 18.867 3.1421 15.7232
518 1 20.4381 4.71542 17.2943
519 1 -4.63456e-07 6.2877 15.7223
520 1 1.57146 7.86017 17.2942
521 1 3.14226 6.28708 15.7231
522 1 4.71478 7.85977 17.2951
523 1 6.28497 6.28484 15.7264
524 1 7.85991 7.86005 17.2957
525 1 9.43315 6.28806 15.7219
526 1 11.0048 7.86059 17.2932
527 1 12.5764 6.28806 15.7219
528 1 14.1496 7.86005 17.2957
529 1 15.7246 6.28484 15.7264
530 1 17.2948 7.85977 17.2951
531 1 18.8673 6.28708 15.7231
532 1 20.4381 7.86017 17.2942
533 1 -3.46475e-07 9.43264 15.7222
534 1 1.57144 11.005 17.2941
535 1 3.14236 9.43245 15.7229
536 1 4.71459 11.005 17.2951
537 1 6.28516 9.43199 15.7251
538 1 7.85902 11.005 17.2964
539 1 9.43218 9.43355 15.7229
540 1 11.0048 11.0055 17.2941
541 1 12.5774 9.43355 15.7229
542 1 14.1505 11.005 17.2964
543 1 15.7244 9.43199 15.7251
544 1 17.295 11.005 17.2951
545 1 18.8672 9.43245 15.7228
546 1 20.4381 11.005 17.2941
547 1 -3.0078e-07 12.5774 15.7219
548 1 1.57138 14.1496 17.294
549 1 3.14232 12.5777 15.7227
550 1 4.7143 14.1504 17.2952
551 1 6.28496 12.5789 15.7257
552 1 7.85836 14.1517 17.2976
553 1 9.431 12.5809 15.73
554 1 11.0048 14.1525 17.2977
555 1 12.5785 12.5809 15.73
556 1 14.1512 14.1517 17.2976
557 1 15.7246 12.5789 15.7257
558 1 17.2952 14.1504 17.2952
559 1 18.8672 12.5777 15.7227
560 1 20.4382 14.1496 17.294
561 1 -2.26846e-07 15.7219 15.7217
562 1 1.57134 17.2941 17.2939
563 1 3.14194 15.7229 15.7226
564 1 4.71428 17.2953 17.2949
565 1 6.28356 15.7264 15.7259
566 1 7.85923 17.2958 17.2952
567 1 9.43094 15.7263 15.7258
568 1 11.0048 17.296 17.2953
569 1 12.5786 15.7263 15.7258
570 1 14.1503 17.2958 17.2952
571 1 15.726 15.7264 15.7259
572 1 17.2953 17.2953 17.2949
573 1 18.8676 15.7229 15.7226
574 1 20.4382 17.2941 17.2939
575 1 8.18108e-08 18.8655 15.7214
576 1 1.57171 20.4375 17.2937
577 1 3.14331 18.8659 15.7216
578 1 4.71552 20.4382 17.2939
579 1 6.28696 18.8675 15.7225
580 1 7.86004 20.4386 17.294
581 1 9.43207 18.8679 15.7227
582 1 11.0048 20.4387 17.2941
583 1 12.5775 18.8679 15.7227
584 1 14.1495 20.4386 17.294
585 1 15.7226 18.8675 15.7225
586 1 17.294 20.4382 17.2939
587 1 18.8662 18.8659 15.7216
588 1 20.4378 20.4375 17.2937
589 1 -3.17455e-08 -0.000299543 18.8657
590 1 1.57178 1.57161 20.4374
591 1 3.14378 -3.45629e-05 18.8657
592 1 4.71606 1.57193 20.4374
593 1 6.2881 0.000345544 18.8657
594 1 7.86045 1.57218 20.4374
595 1 9.43253 0.00051844 18.8657
596 1 11.0048 1.57225 20.4374
597 1 12.577 0.00051842 18.8657
598 1 14.1491 1.57218 20.4374
599 1 15.7214 0.000345538 18.8657
600 1 17.2935 1.57193 20.4374
601 1 18.8658 -3.45593e-05 18.8657
602 1 20.4378 1.57161 20.4374
603 1 -9.28729e-09 3.14355 18.8658
604 1 1.57176 4.71577 20.4374
605 1 3.14353 3.14334 18.8661
606 1 4.71575 4.71556 20.4374
607 1 6.28831 3.14382 18.8658
608 1 7.86063 4.716 20.4374
609 1 9.43266 3.14403 18.8657
610 1 11.0048 4.71608 20.4374
611 1 12.5769 3.14403 18.8657
612 1 14.1489 4.716 20.4374
613 1 15.7212 3.14382 18.8658
614 1 17.2938 4.71556 20.4374
615 1 18.866 3.14334 18.8661
616 1 20.4378 4.71577 20.4374
617 1 2.57698e-09 6.28798 18.8658
618 1 1.57171 7.86025 20.4374
619 1 3.14347 6.28781 18.8661
620 1 4.71551 7.86004 20.4374
621 1 6.28787 6.28768 18.8665
622 1 7.86046 7.86031 20.4374
623 1 9.4328 6.28818 18.8657
624 1 11.0048 7.86037 20.4374
625 1 12.5767 6.28818 18.8657
626 1 14.1491 7.86031 20.4374
627 1 15.7217 6.28768 18.8665
628 1 17.294 7.86004 20.4374
629 1 18.8661 6.28781 18.8661
630 1 20.4378 7.86025 20.4374
631 1 -1.40552e-08 9.43258 18.8658
632 1 1.57166 11.0049 20.4374
633 1 3.14333 9.43248 18.866
634 1 4.71528 11.0048 20.4374
635 1 6.28737 9.4323 18.8665
636 1 7.85993 11.0047 20.4374
637 1 9.43273 9.43273 18.8658
638 1 11.0048 11.0049 20.4374
639 1 12.5768 9.43273 18.8658
640 1 14.1496 11.0047 20.4374
641 1 15.7222 9.4323 18.8665
642 1 17.2943 11.0048 20.4374
643 1 18.8662 9.43248 18.866
644 1 20.4379 11.0049 20.4374
645 1 -2.03961e-08 12.5772 18.8657
646 1 1.57161 14.1495 20.4374
647 1 3.14322 12.5773 18.866
648 1 4.71511 14.1497 20.4374
649 1 6.28713 12.5774 18.8667
650 1 7.85963 14.1501 20.4374
651 1 9.43237 12.5777 18.8672
652 1 11.0048 14.1505 20.4374
653 1 12.5772 12.5777 18.8672
654 1 14.1499 14.1501 20.4374
655 1 15.7224 12.5774 18.8667
656 1 17.2944 14.1497 20.4374
657 1 18.8663 12.5773 18.866
658 1 20.4379 14.1495 20.4374
659 1 -5.00863e-09 15.7217 18.8657
660 1 1.5716 17.2939 20.4374
661 1 3.14311 15.722 18.8659
662 1 4.71507 17.2945 20.4374
663 1 6.28679 15.7229 18.8668
664 1 7.85969 17.2949 20.4374
665 1 9.43197 15.7233 18.8669
666 1 11.0048 17.295 20.4374
667 1 12.5776 15.7233 18.8669
668 1 14.1499 17.2949 20.4374
669 1 15.7228 15.7229 18.8668
670 1 17.2945 17.2945 20.4374
671 1 18.8664 15.722 18.8659
672 1 20.4379 17.2939 20.4374
673 1 -1.29041e-08 18.8658 18.8657
674 1 1.57178 20.4377 20.4374
675 1 3.14333 18.8663 18.8658
676 1 4.71576 20.4381 20.4374
677 1 6.28755 18.8667 18.8659
678 1 7.86015 20.4383 20.4374
679 1 9.43229 18.8669 18.866
680 1 11.0048 20.4384 20.4374
681 1 12.5773 18.8669 18.866
682 1 14.1494 20.4383 20.4374
683 1 15.722 18.8667 18.8659
684 1 17.2938 20.4381 20.4374
685 1 18.8662 18.8663 18.8658
686 1 20.4378 20.4377 20.4374
687 3 11.005 10.2188 9.43266
