LAMMPS data file via write_data, version 2 Aug 2023, timestep = 297, units = metal

7201 atoms
3 atom types

0.03958882351125724 53.31961095206824 xlo xhi
0.09424756895812236 37.63640443104211 ylo yhi
-22.326799099633075 75.68599887521255 zlo zhi

Masses

1 183.84
2 1.008
3 4.0026

Atoms # atomic

1 1 2.2595895671139954 36.07214872379874 0.00489427930568688 0 0 0
2 1 6.6995819932430125 36.072156444424365 0.004887953130145777 0 0 0
3 1 11.139523191950333 36.07221779458003 0.004845213397014851 0 0 0
4 1 15.579384400567873 36.072370829187456 0.004733568683334541 0 0 0
5 1 20.019311373045465 36.07246539585587 0.004614447791931257 0 0 0
6 1 24.459336838829493 36.072555953544835 0.004523971774393743 0 0 0
1703 1 24.45945223835636 3.2226192882304527 2.163558978658026 0 0 0
8 1 2.2595884473446635 32.94363865114621 0.004890934162502261 0 0 0
9 1 4.479584225252799 34.507896593452486 0.004890262337869387 0 0 0
10 1 6.699552699900064 32.94366264468083 0.004869951430497543 0 0 0
11 1 8.919537030220015 34.50793968956342 0.0048578021719222556 0 0 0
12 1 11.139427197183824 32.94377289596966 0.004782712156421385 0 0 0
13 1 13.359399514361774 34.508084153936096 0.0047578276271121375 0 0 0
14 1 15.579292397118929 32.94393077890442 0.004665992686977415 0 0 0
15 1 17.79930029617417 34.50823861329879 0.004645298719770121 0 0 0
16 1 20.01923634409576 32.94406507569964 0.004590728185752096 0 0 0
17 1 22.239266398132017 34.5083364229064 0.004591198387536233 0 0 0
18 1 24.459182314593242 32.944355108417184 0.004445161368747905 0 0 0
1682 1 22.2394348708652 1.6585058271536381 2.163623790450715 0 0 0
20 1 2.25958394080163 29.815128189330345 0.004885464494873724 0 0 0
21 1 4.479567396949808 31.379391685160975 0.004880105417139517 0 0 0
22 1 6.699506313988232 29.815165909993173 0.004842012300700014 0 0 0
23 1 8.91946544040929 31.37946325884672 0.0048121933549018 0 0 0
24 1 11.139336010846039 29.815278315255203 0.004716798751914446 0 0 0
25 1 13.359303334973413 31.37960383872233 0.0046865580738450945 0 0 0
26 1 15.579210101630466 29.815426724107738 0.004568661157005696 0 0 0
27 1 17.799224979015253 31.379765245155937 0.0045665224465288425 0 0 0
28 1 20.019107227491727 29.815560608836172 0.00453920114517966 0 0 0
29 1 22.23910609439605 31.37999351164894 0.004522473732617683 0 0 0
30 1 24.45899473472353 29.81600719640905 0.004063335097473058 0 0 0
1681 1 20.019426617345342 3.22266480695848 2.163660367663873 0 0 0
32 1 2.259577121168191 26.68661584960314 0.00487908098028533 0 0 0
33 1 4.479544774318165 28.250883697065174 0.0048666893594227125 0 0 0
34 1 6.699458746995606 26.68665467713289 0.004813237391665766 0 0 0
35 1 8.919393249279693 28.25095914610421 0.004762729466198825 0 0 0
36 1 11.13925964740455 26.686744788940743 0.00464750580982846 0 0 0
37 1 13.359214536019655 28.251079765127113 0.004593754438906475 0 0 0
38 1 15.57916315186345 26.686840879873117 0.004469733537873532 0 0 0
39 1 17.799143452814338 28.251186864953567 0.004482579860188734 0 0 0
40 1 20.01901486883573 26.6869525712255 0.0044140935446601946 0 0 0
41 1 22.2389451810124 28.251486925321416 0.004275957609368215 0 0 0
42 1 24.458746712078458 26.687549540447126 0.0034078045136993343 0 0 0
1661 1 17.799434233216758 1.6585050374879 2.1637034774100483 0 0 0
44 1 2.259572094433506 23.558100231662404 0.004874275509116942 0 0 0
45 1 4.479520472288383 25.122369009819305 0.004853287642351028 0 0 0
46 1 6.699423921199617 23.558124325639287 0.004791767304313517 0 0 0
47 1 8.91933005618908 25.122424966953673 0.004719421933141826 0 0 0
48 1 11.139213473151159 23.55817145472066 0.00459860534581859 0 0 0
49 1 13.359164731266235 25.122499294880754 0.004516703698075298 0 0 0
50 1 15.57910150902681 23.558225366215378 0.0044182118286375 0 0 0
51 1 17.799073654753133 25.122559473024744 0.004424827142735387 0 0 0
52 1 20.018916223743343 23.55830481283625 0.004353065968342564 0 0 0
53 1 22.238747101576365 25.122838370764047 0.003999307609246073 0 0 0
54 1 24.45851284355317 23.558789255952348 0.0024716880034278983 0 0 0
1660 1 15.57945616528157 3.222679650604154 2.1637455449779845 0 0 0
56 1 2.259570207165666 20.42958250574131 0.004872495739956751 0 0 0
57 1 4.479505497728846 21.99384591049411 0.004845934660717245 0 0 0
58 1 6.699409583292889 20.42958242766082 0.004783817144657287 0 0 0
59 1 8.919300294776331 21.993865242468043 0.004694879740829056 0 0 0
60 1 11.139198718869807 20.4295819857263 0.004579552691905988 0 0 0
61 1 13.35912848938444 21.993894123349477 0.004473008479409846 0 0 0
62 1 15.579101636291618 20.429581444586344 0.004399781397149707 0 0 0
63 1 17.799030208722666 21.993920438644572 0.004403874162905996 0 0 0
64 1 20.018869677339076 20.42958343064971 0.00433528849708766 0 0 0
65 1 22.238608604755044 21.99404304866945 0.0037471140521787645 0 0 0
66 1 24.4584337869817 20.42958860989702 0.0022044276302415093 0 0 0
1644 1 13.359508904550752 1.658504474434051 2.1637923533179664 0 0 0
68 1 2.2595720404290764 17.30106479248471 0.004874324969169296 0 0 0
69 1 4.4795055444046215 18.865319092675644 0.004845963965839426 0 0 0
70 1 6.699424192260557 17.301040594793704 0.004791936847279077 0 0 0
71 1 8.91930054298329 18.86529931918159 0.004695083076514041 0 0 0
72 1 11.139214178873539 17.300992810495636 0.004599276917385167 0 0 0
73 1 13.359129021284435 18.8652692466069 0.0044735296216807385 0 0 0
74 1 15.579102766228512 17.300937836855876 0.004419467868126584 0 0 0
75 1 17.799031447155716 18.865243422945678 0.004405197192354912 0 0 0
76 1 20.018918256334732 17.300862866367805 0.004356793491144091 0 0 0
77 1 22.23860918704021 18.86512941984869 0.003749945296933627 0 0 0
78 1 24.458514228641043 17.300386591903017 0.00247828337938199 0 0 0
1643 1 11.139540948822768 3.222726101845549 2.1638208261813214 0 0 0
80 1 2.2595770322924325 14.172549213797375 0.004879164716827641 0 0 0
81 1 4.479520592566135 15.736796034674699 0.004853367750742465 0 0 0
82 1 6.699459133690811 14.172510379543558 0.004813485463333348 0 0 0
83 1 8.919330745652346 15.736739876824306 0.00471993641756391 0 0 0
84 1 11.139260801318063 14.172420103648461 0.0046484986619285875 0 0 0
85 1 13.359166042687914 15.736664929617437 0.0045180088985220185 0 0 0
86 1 15.579165214387 14.172323858628543 0.004471733923594794 0 0 0
87 1 17.79907591992352 15.73660495142381 0.00442739985665243 0 0 0
88 1 20.019017851425687 14.172215012254123 0.004419284572662813 0 0 0
89 1 22.238749977042296 15.736333082152981 0.004006403935804191 0 0 0
90 1 24.458748379511082 14.171624001385982 0.0034153339843750285 0 0 0
1631 1 8.919574705821892 1.6585041803502873 2.1638452759522404 0 0 0
92 1 2.259583851581409 11.044036916574214 0.004885553150842656 0 0 0
93 1 4.479544897709126 12.60828139128139 0.004866784623627576 0 0 0
94 1 6.6995066794222 11.04399926822771 0.004842239927657307 0 0 0
95 1 8.91939407525559 12.608206045802788 0.004763300430412565 0 0 0
96 1 11.1393373065267 11.043887169707563 0.004717778906913439 0 0 0
97 1 13.359216093927694 12.608085348269192 0.004595204090745509 0 0 0
98 1 15.579211682519672 11.043738683494587 0.0045702089582366585 0 0 0
99 1 17.799146298791797 12.607979144410058 0.0044852269595970756 0 0 0
100 1 20.019110162547886 11.043607638380035 0.004542675425377066 0 0 0
101 1 22.23894791946756 12.60768402134629 0.004283106699463848 0 0 0
102 1 24.458996799601152 11.043164150128014 0.004069060385375388 0 0 0
1630 1 6.6995828683002925 3.2227547703340162 2.1638523227211044 0 0 0
104 1 2.259588397277396 7.915526456634827 0.004890989463666105 0 0 0
105 1 4.479567478669013 9.479773427371686 0.0048801790991373295 0 0 0
106 1 6.699552899200269 7.915502528151094 0.004870082060245024 0 0 0
107 1 8.91946608056467 9.479702103104437 0.004812627258344631 0 0 0
108 1 11.139428125011694 7.915392760159781 0.004783357823716994 0 0 0
109 1 13.35930490583715 9.479562071611628 0.004687836659860482 0 0 0
110 1 15.579294140685253 7.915235639592609 0.004667419316726675 0 0 0
111 1 17.799226359363125 9.47940059339987 0.004567805159040068 0 0 0
112 1 20.019237772254904 7.915101846539786 0.004591818725619191 0 0 0
113 1 22.239108770346217 9.479177083271981 0.004526709841040736 0 0 0
114 1 24.459185067877506 7.9148158913096145 0.004448507480230994 0 0 0
1622 1 4.479588812679744 1.6585041147536133 2.16385684357166 0 0 0
116 1 2.2595895568719904 4.787016363522361 0.004894297818460361 0 0 0
117 1 4.47958426020097 6.351268507073286 0.004890297708032004 0 0 0
118 1 6.699582069776724 4.787008683291442 0.004888003713569298 0 0 0
119 1 8.919537364239483 6.351225604059712 0.004858017559313436 0 0 0
120 1 11.139523651932727 4.786947696264822 0.004845509053925453 0 0 0
121 1 13.359400690854102 6.351081895373371 0.004758642439054869 0 0 0
122 1 15.579385562693522 4.786795798555591 0.004734402775209615 0 0 0
123 1 17.79930200749914 6.350928499766615 0.004646684494858794 0 0 0
124 1 20.019312522609557 4.786702765402116 0.004615550360744068 0 0 0
125 1 22.239267523986484 6.350831856722562 0.004592097526887049 0 0 0
126 1 24.459337561944555 4.786612938592542 0.004523973417961142 0 0 0
1621 1 2.259589492846037 3.2227597659588185 2.1638573548157023 0 0 0
128 1 2.259589684399347 1.6585041057582763 0.004895067833055351 0 0 0
129 1 4.479589876237677 3.2227599362925607 0.004894299942600685 0 0 0
130 1 6.699589847770327 1.6585041194394825 0.004893011264549153 0 0 0
131 1 8.91957968268325 3.222749452890101 0.0048844278849313775 0 0 0
132 1 11.139566497271208 1.658504254629382 0.004872500043370254 0 0 0
133 1 13.35950527154581 3.2226890593982738 0.004827161032061307 0 0 0
134 1 15.579449646657581 1.6585048575744903 0.0047788580741923116 0 0 0
135 1 17.7993593736678 3.2225950540366055 0.004689407536996675 0 0 0
136 1 20.01932480575258 1.6585058326332076 0.0046191790201747015 0 0 0
137 1 22.239321905509794 3.222575589499526 0.004568660335341 0 0 0
138 1 24.459363594256853 1.6585064852056863 0.0045060974891846794 0 0 0
1563 1 24.45937835889039 6.350862007715289 2.1635309999459973 0 0 0
140 1 4.4795898662927645 0.0942482839785228 0.004894291322780218 0 0 0
141 1 8.91957958655986 0.09425887547385514 0.004884366133714823 0 0 0
142 1 13.359504851201857 0.09431993383136472 0.004826888074705843 0 0 0
143 1 17.79935870593244 0.09441561143175647 0.004688871235953336 0 0 0
144 1 22.239321506972633 0.094437037371394 0.00456793961668472 0 0 0
1542 1 22.239397661531157 4.786791582626646 2.163586627547859 0 0 0
1541 1 20.019372032973294 6.351009770103244 2.163596079735901 0 0 0
1521 1 17.799425576711975 4.786854061349412 2.1636921021129027 0 0 0
1520 1 15.579425394008743 6.351103528998315 2.1637149142139536 0 0 0
1240 1 15.579290059889736 12.608074075867332 2.163486751305313 0 0 0
1504 1 13.35947349352952 4.786911485482565 2.1637737712646734 0 0 0
724 1 26.67935811846164 23.55923164135236 2.159087397559812 0 0 0
1503 1 11.13948460341315 6.351183867319772 2.163788890172162 0 0 0
1491 1 8.91955287314889 4.786984216238901 2.163832976223525 0 0 0
1490 1 6.699561035262714 6.351251437764683 2.1638405749922085 0 0 0
1224 1 13.359341909429071 11.043877890128325 2.163625837906368 0 0 0
1004 1 26.67935659744909 17.299949808039813 2.159090094380869 0 0 0
1482 1 4.47958513035696 4.787012476124491 2.1638544733134375 0 0 0
148 1 4.479585100700293 36.07215262849299 2.1638544468902032 0 0 0
153 1 8.919552624787196 36.0721810566045 2.163832840635846 0 0 0
160 1 13.359472830922789 36.072254335824475 2.163773352391914 0 0 0
169 1 17.799424845016404 36.072312663746104 2.1636913969789915 0 0 0
180 1 22.239396917152074 36.07237656937423 2.1635859065973753 0 0 0
1481 1 2.259588517693911 6.351269701105986 2.1638548848781194 0 0 0
1423 1 24.45933130321023 9.479166594666667 2.163283959256278 0 0 0
221 1 2.2595885721865927 34.50789541523309 2.1638548386805687 0 0 0
222 1 4.479569723400396 32.94364752791476 2.163846867998334 0 0 0
230 1 6.699560849940108 34.50791373738967 2.1638404778392126 0 0 0
231 1 8.919497040832377 32.943698279877346 2.163802757408098 0 0 0
243 1 11.139483933697012 34.507981671808864 2.1637884770038154 0 0 0
244 1 13.359418491588933 32.94377699709047 2.1637255512300504 0 0 0
260 1 15.579424501760881 34.50806256487463 2.1637140497388585 0 0 0
261 1 17.799376619721645 32.94390675750911 2.1635916014283327 0 0 0
281 1 20.01937130252796 34.50815738716741 2.1635951727235962 0 0 0
282 1 22.239320704437752 32.94406112644456 2.163543202222187 0 0 0
303 1 24.459375852972244 34.508307692808394 2.1635301417534047 0 0 0
1402 1 22.23932283343857 7.915109028889884 2.1635452942409428 0 0 0
1401 1 20.019289352703368 9.479443993865454 2.1635375980138924 0 0 0
361 1 2.259584374461938 31.37938581796532 2.163850541581156 0 0 0
362 1 4.479546401892373 29.8151405060797 2.163836187564218 0 0 0
370 1 6.69951794782901 31.37941629320527 2.163819866047553 0 0 0
371 1 8.919434321791192 29.815197256752985 2.1637627008412896 0 0 0
383 1 11.13941434006147 31.379487610877195 2.1637376933148604 0 0 0
384 1 13.359340739287683 29.815287408245222 2.1636245995179655 0 0 0
400 1 15.579359456950074 31.37960592424403 2.1635987020504617 0 0 0
401 1 17.799274915796936 29.815416856391938 2.1634893759649043 0 0 0
421 1 20.019286949714093 31.379725432482378 2.163534872116673 0 0 0
422 1 22.239232516060916 29.815614549249982 2.16338033016027 0 0 0
443 1 24.45933025289171 31.38000355189884 2.1632798026043094 0 0 0
1381 1 17.79937727441446 7.915259331159719 2.1635925949420565 0 0 0
1380 1 15.579360529202571 9.479559686891076 2.1635999841875124 0 0 0
501 1 2.2595766368805665 28.250874717558272 2.1638449381626983 0 0 0
502 1 4.479517925634806 26.68662866160226 2.1638232270777418 0 0 0
510 1 6.6994708331873785 28.25090892971274 2.1637947082354505 0 0 0
511 1 8.919373220267934 26.686677474519847 2.1637162598764617 0 0 0
523 1 11.139349462889689 28.25097682419753 2.163666128487417 0 0 0
524 1 13.359282161588794 26.686750023305855 2.163532253280072 0 0 0
540 1 15.579288123647531 28.25109170249833 2.1634848032088283 0 0 0
541 1 17.79914718229833 26.686838995941322 2.1634311310096903 0 0 0
561 1 20.019173237048257 28.25120670608277 2.163445651433719 0 0 0
562 1 22.239185771483584 26.68705188969736 2.163128930203389 0 0 0
583 1 24.459310137408412 28.251502057447485 2.1628131835686037 0 0 0
1364 1 13.359419529171777 7.915388724508837 2.1637264288443836 0 0 0
1363 1 11.139415423860292 9.47967785447321 2.163738444682345 0 0 0
641 1 2.2595694130548165 25.12235997188032 2.163840346832029 0 0 0
642 1 4.479495800881453 23.55810857613588 2.1638143163707935 0 0 0
650 1 6.699432764079057 25.122385536518745 2.163771935453408 0 0 0
651 1 8.919340704422272 23.55813245964619 2.16368451585774 0 0 0
663 1 11.139305842343012 25.1224279027888 2.1636015333654126 0 0 0
664 1 13.359236278075187 23.558182119796196 2.1634545325389847 0 0 0
680 1 15.57920107045163 25.122518133941348 2.163407481239797 0 0 0
681 1 17.79911716901817 23.558222332751168 2.1633832081991575 0 0 0
701 1 20.0191099863913 25.12259150014302 2.163352206699836 0 0 0
702 1 22.23916169089083 23.55837728237886 2.16285167988181 0 0 0
723 1 24.459293481751047 25.122908901562454 2.161967978740475 0 0 0
1351 1 8.919497613054327 7.915467068822925 2.163803080198641 0 0 0
1350 1 6.699518320751174 9.47974890428261 2.1638200530264706 0 0 0
781 1 2.2595649103017164 21.993842042488218 2.1638377503398263 0 0 0
782 1 4.479487978138494 20.429582488266355 2.163811724582378 0 0 0
790 1 6.699409593311938 21.993852037755936 2.1637572977866113 0 0 0
791 1 8.91933016396575 20.42958229064699 2.1636701720355926 0 0 0
1797 1 24.459451631665722 0.09439199749085841 2.1635590440955506 0 0 0
803 1 11.139282508881436 21.993871228435687 2.1635626078857015 0 0 0
804 1 13.359212876236436 20.42958188527179 2.1634473963523955 0 0 0
820 1 15.579157978209183 21.9938792418785 2.1633721475663577 0 0 0
821 1 17.79907541671817 20.429583361600606 2.1633786517572156 0 0 0
841 1 20.019111977148203 21.993942380379288 2.1633147170757674 0 0 0
842 1 22.239132823311987 20.429588854113206 2.1627269010704486 0 0 0
863 1 24.459144629747357 21.994111062697183 2.1611346626318384 0 0 0
1342 1 4.479569805300917 7.915517594398773 2.1638469291307523 0 0 0
1341 1 2.2595842629026035 9.479779305959543 2.1638506221740137 0 0 0
921 1 2.259564869638211 18.86532294978549 2.163837770944821 0 0 0
1786 1 20.019426237300117 0.09434585723276559 2.1636598893817793 0 0 0
922 1 4.479495906820476 17.301056425313718 2.16381436397986 0 0 0
930 1 6.699409766704878 18.86531281238089 2.1637573885978334 0 0 0
931 1 8.91934118277283 17.30103221205815 2.1636848795846833 0 0 0
943 1 11.139282803757826 18.86529301038829 2.1635629658493953 0 0 0
944 1 13.35923711783765 17.300981947859047 2.1634554596881137 0 0 0
960 1 15.5791588609108 18.865285077285442 2.1633729239161608 0 0 0
961 1 17.799118990906507 17.30094502859408 2.163385376845734 0 0 0
981 1 20.01911188535828 18.865229590955387 2.1633159696202053 0 0 0
982 1 22.239161574622983 17.30079654324022 2.162855219050552 0 0 0
1776 1 15.579455752914658 0.09432980503748922 2.1637452553610745 0 0 0
1003 1 24.4591444790714 18.865069964885752 2.1611373901240674 0 0 0
1283 1 24.459311454420572 12.60766923458149 2.1628207964608532 0 0 0
1262 1 22.239234976782825 11.04355606619355 2.1633851274187124 0 0 0
1061 1 2.2595693072591643 15.736805053034404 2.1638404016785984 0 0 0
1062 1 4.47951809356598 14.172536400215133 2.163823315211421 0 0 0
1070 1 6.699433186999655 15.736779433162766 2.163772155377369 0 0 0
1071 1 8.919374044750212 14.172487512966411 2.1637168177228197 0 0 0
1768 1 11.139540713567715 0.09428249253231513 2.1638206952057315 0 0 0
1083 1 11.139306689024883 15.7367367265353 2.1636024079910388 0 0 0
1084 1 13.359283527467467 14.172414920167368 2.163533743917882 0 0 0
1100 1 15.579202870655868 15.73664644449381 2.163409082204705 0 0 0
1101 1 17.79915004873978 14.172327460074932 2.1634336663309863 0 0 0
1121 1 20.019112311510842 15.736579331989882 2.1633570213956004 0 0 0
1762 1 6.699582819632249 0.09425350092678286 2.163852295428817 0 0 0
1122 1 22.239188164936742 14.17212020988997 2.1631350419302993 0 0 0
1143 1 24.459292537280184 15.736264923958025 2.1619715451393833 0 0 0
1261 1 20.019175872267464 12.607962594141915 2.1634498264820583 0 0 0
1758 1 2.259589503779237 0.09424846438259493 2.1638573417001727 0 0 0
1241 1 17.799277607709676 11.043750437211832 2.1634919192716047 0 0 0
1201 1 2.259576504155406 12.60829036368165 2.1638450178967257 0 0 0
1202 1 4.479546547104551 11.044024601213476 2.163836275234848 0 0 0
1210 1 6.69947130437508 12.608256177664966 2.163794947735006 0 0 0
1211 1 8.919435143401715 11.043967990484221 2.1637631805538486 0 0 0
1223 1 11.139350557645544 12.608188264932098 2.1636670631241905 0 0 0
3772 1 26.678998415175585 28.252295017419808 0.0029602317294271942 0 0 0
3787 1 26.678844520109678 25.12378668822469 0.0011469953461798249 0 0 0
1144 1 26.679495461115078 14.17151616521347 2.1611265051223154 0 0 0
3832 1 26.678844550436086 15.735390278222292 0.001154607035837129 0 0 0
3847 1 26.67899860880134 12.606879054312849 0.002968355481067097 0 0 0
584 1 26.679496586947067 26.68765602375591 2.1611204191678826 0 0 0
1704 1 26.679505904319356 1.6585062235981973 2.1635344356267594 0 0 0
1564 1 26.679478551504666 4.786692470264244 2.163491048352483 0 0 0
1284 1 26.67945643681648 11.043166006000307 2.162650319750085 0 0 0
191 1 26.67947717512804 36.0724780496131 2.163489595550533 0 0 0
864 1 26.679535319052324 20.429594071349513 2.1585107612143584 0 0 0
1424 1 26.679412246107347 7.914861298284011 2.1632601564162903 0 0 0
304 1 26.67941218720489 32.9443107753527 2.163255185800064 0 0 0
444 1 26.679458156753483 29.81600676765636 2.16264187267445 0 0 0
7 1 0.03959383424091811 34.507895182836045 0.004891552486906163 0 0 0
3892 1 26.679435412516053 3.2225282771288626 0.00446437195324145 0 0 0
3907 1 26.67943497774738 0.09448486422695623 0.004464329281176089 0 0 0
357 1 0.039615346061076195 29.815133487638974 2.163844916726336 0 0 0
497 1 0.03962716759768625 26.686619114734697 2.1638401824901026 0 0 0
917 1 0.039636195077747516 17.30106297220804 2.16383605641011 0 0 0
1477 1 0.03959299369892477 4.787013693826762 2.1638554346282146 0 0 0
217 1 0.03960241386580776 32.94364328888021 2.1638508317302723 0 0 0
637 1 0.039636574712602624 23.55810190200399 2.163835925122472 0 0 0
145 1 0.03959312619829802 36.07215146810486 2.1638553570724306 0 0 0
3862 1 26.679180530883553 9.478723636472528 0.004003437269873396 0 0 0
1337 1 0.03960207663102722 7.915521919617237 2.1638509988804917 0 0 0
777 1 0.03964007634122879 20.429582403131846 2.1638342833301767 0 0 0
3817 1 26.6788299587299 18.864710242212258 0.0004454902022483545 0 0 0
1057 1 0.03962655880021515 14.172545927212473 2.163840422620923 0 0 0
1197 1 0.03961477206779307 11.044031697612871 2.1638451725425076 0 0 0
3757 1 26.6791790580922 31.380448689378177 0.00399869556543392 0 0 0
3742 1 26.679356025446232 34.50856360325454 0.00441601571883604 0 0 0
3802 1 26.678830866629323 21.99447127885628 0.0004413250449069991 0 0 0
1617 1 0.039589929956278525 1.658504125536538 2.163857240410265 0 0 0
139 1 0.039589192302514675 0.09424800402211275 0.00489460685061452 0 0 0
127 1 0.0395891742366814 3.2227602218165963 0.0048946256628087876 0 0 0
115 1 0.03959369164378046 6.351269975139995 0.004891650841724505 0 0 0
103 1 0.03960288452617533 9.479778633721176 0.004885526339818174 0 0 0
91 1 0.03961391576135753 12.608289997381648 0.004878352592334218 0 0 0
79 1 0.03962271789222882 15.736805492987976 0.004872263684663767 0 0 0
67 1 0.03962878263267555 18.865323046535256 0.004868158076128147 0 0 0
55 1 0.03962894517749049 21.993841819564476 0.004868075588747163 0 0 0
43 1 0.03962314124649424 25.122359495819175 0.004872039510665175 0 0 0
31 1 0.03961439148865509 28.25087513905514 0.004878078252467535 0 0 0
19 1 0.03960320646191917 31.379386560642853 0.004885322178211485 0 0 0
3877 1 26.679358097479145 6.3506076084395175 0.0044179763039304725 0 0 0
1598 1 15.579483041700652 6.351148988677085 24.450784937686233 0 0 0
1596 1 24.459365165832047 6.350749886130945 11.077108788974119 0 0 0
147 1 2.2595884251721032 36.072152900000845 4.390437203147036 0 0 0
1595 1 24.459394933245278 4.786656735316132 13.306093371777456 0 0 0
1594 1 22.239250244140617 6.350695342294431 13.306085727335013 0 0 0
150 1 2.2595836850998223 36.07215747302974 8.848232889329283 0 0 0
151 1 4.479567205212438 36.07216444599304 6.619328711398179 0 0 0
152 1 6.699558407691491 36.072173368493424 4.390425147828453 0 0 0
1593 1 22.239347103478487 4.786681121957222 15.535096104491183 0 0 0
1592 1 20.019254008302994 6.350818226144982 15.535088552059332 0 0 0
155 1 2.259583155707911 36.072157608419026 13.306048157268577 0 0 0
156 1 4.479550625149694 36.07217241334456 11.077137868523527 0 0 0
157 1 6.699512564145226 36.07219970966776 8.848223033212715 0 0 0
158 1 8.919485002522407 36.07222777761969 6.61930073969908 0 0 0
159 1 11.139474751519515 36.07224476018466 4.390378491149565 0 0 0
1591 1 20.01933465308307 4.786769196575977 17.764065634762176 0 0 0
1590 1 17.799328214225387 6.3509498083836915 17.764053777330464 0 0 0
162 1 2.2595877759971126 36.0721529102757 17.763882422773868 0 0 0
163 1 4.479565832907657 36.072165741542285 15.534966811680757 0 0 0
164 1 6.699508702305856 36.07220237593985 13.306057123060498 0 0 0
165 1 8.919430310745163 36.07225732690603 11.077135379008357 0 0 0
166 1 11.139376293787922 36.07230204552527 8.848197378248106 0 0 0
167 1 13.359383164432211 36.072310775982125 6.619253774172264 0 0 0
168 1 15.579417167624895 36.07228382583393 4.390315711512665 0 0 0
1589 1 17.79938712609344 4.786813166732443 19.992992975643013 0 0 0
1588 1 15.579384927555465 6.351054121469458 19.992967904155694 0 0 0
171 1 2.259589555296736 36.07214882884191 22.221733722952386 0 0 0
172 1 4.479584886863527 36.072153289944076 19.992807761275017 0 0 0
173 1 6.699556612946706 36.07217607400818 17.76389523224033 0 0 0
174 1 8.919472101260366 36.072239059973036 15.534995708097533 0 0 0
175 1 11.139352145694973 36.07231910544993 13.306074658937147 0 0 0
176 1 13.35929481176328 36.07237787538339 11.07712430684817 0 0 0
177 1 15.579309374759283 36.072367391719084 8.84815390026321 0 0 0
178 1 17.79936767889728 36.07233402650057 6.619190328094978 0 0 0
179 1 20.019427927869426 36.07225130853395 4.390246884971494 0 0 0
1587 1 15.579460340127257 4.786872795613069 22.221855904492596 0 0 0
181 1 4.479589886251308 36.07214867740539 24.450666070952668 0 0 0
182 1 6.699583990223525 36.072154958644035 22.22173806102973 0 0 0
183 1 8.919549581021366 36.07218677787886 19.99282990519027 0 0 0
184 1 11.139457486474251 36.072264274656455 17.76394706561298 0 0 0
185 1 13.359329810895472 36.07235861214591 15.535038635947847 0 0 0
186 1 15.579260658596546 36.07241292992172 13.306090157159712 0 0 0
187 1 17.79925867018438 36.07244552136888 11.077102301970973 0 0 0
188 1 20.019345108485236 36.07235999364094 8.848103525297802 0 0 0
189 1 22.23941838933659 36.07229837055953 6.619114373497848 0 0 0
190 1 24.459449764053172 36.07227685553676 4.390196668632132 0 0 0
1586 1 13.359465231002709 6.351147842329514 22.221836492547006 0 0 0
192 1 8.919584447684176 36.07215609616132 24.450671882973392 0 0 0
193 1 11.13954609468468 36.07219499698475 22.221768300008197 0 0 0
194 1 13.359447817497847 36.07228507880224 19.99290187338553 0 0 0
195 1 15.579353812168605 36.072358538362124 17.76401768739568 0 0 0
196 1 17.79928254008925 36.07242652417319 15.535077201690003 0 0 0
197 1 20.019279686814308 36.07245807436968 13.306088376179295 0 0 0
198 1 22.239325382171444 36.072471847072826 11.07705535911581 0 0 0
199 1 24.459416198743483 36.072374075135535 8.848061027358002 0 0 0
1585 1 13.359550424753188 4.786968675731523 24.450706459107494 0 0 0
201 1 13.359549695024196 36.07219707490477 24.450706983197858 0 0 0
202 1 15.579458712391588 36.07229413594685 22.221856818899038 0 0 0
203 1 17.799385331212815 36.07235545321917 19.992993272570626 0 0 0
204 1 20.019332588593006 36.072401868987534 17.764065374769707 0 0 0
205 1 22.23934674152875 36.072490118722236 15.535095681022282 0 0 0
206 1 24.459394093140055 36.072516696177956 13.306094249833096 0 0 0
1584 1 11.139553570838796 6.351234965906578 24.45069909915308 0 0 0
208 1 17.799487361595464 36.07228553800346 24.45080094377758 0 0 0
209 1 20.01943105481992 36.07234784726316 22.221949369350366 0 0 0
210 1 22.23940548135392 36.07240363722632 19.99305934525393 0 0 0
211 1 24.459409785582142 36.07249788899723 17.76413095670557 0 0 0
1599 1 17.7994887794692 4.786881468296485 24.450799719420182 0 0 0
213 1 22.239482195058255 36.072337817806364 24.450897775006116 0 0 0
214 1 24.459487583968507 36.07241808432838 22.22207374556111 0 0 0
1600 1 17.7994162683228 6.35105216737413 22.221930971554393 0 0 0
1581 1 24.459473836536386 6.351066418391849 6.619123013900165 0 0 0
1580 1 24.45941628747901 4.786796452957768 8.84806141503102 0 0 0
1579 1 22.239332327276284 6.3508962150065855 8.84803924010083 0 0 0
1578 1 22.23932628381886 4.786698865073915 11.077056181890645 0 0 0
220 1 2.2595827790558425 32.94364519918369 4.390433569454307 0 0 0
1577 1 20.019213595542922 6.350776459848784 11.077052803629615 0 0 0
1576 1 20.019280835031054 4.786712633942874 13.306088774974334 0 0 0
1575 1 17.799193447779487 6.3508413326769135 13.306089849924351 0 0 0
1574 1 17.799283473363484 4.7867425162024855 15.53507751460359 0 0 0
225 1 2.259572322575729 32.9436525484227 8.848231119490375 0 0 0
226 1 2.259582580296707 34.507902657977816 6.619331078708478 0 0 0
227 1 4.479534411517267 32.94366678158073 6.619321408628383 0 0 0
228 1 4.4795667676446 34.507907931978195 4.3904303867217465 0 0 0
229 1 6.699506406292361 32.94368675189377 4.390406564309061 0 0 0
1573 1 15.579240332303586 6.3509154226817826 15.53506854988105 0 0 0
1572 1 15.579355617445257 4.786809734199778 17.764017579311204 0 0 0
1571 1 13.35935742738 6.351058642806457 17.763996836416435 0 0 0
1570 1 13.359449433855216 4.786881574430592 19.992901333922617 0 0 0
234 1 2.2595710395934483 32.94365295306611 13.306049838457076 0 0 0
235 1 2.259576954940727 34.50790618734076 11.077138037559648 0 0 0
236 1 4.479506570664828 32.943680082708106 11.077137363655114 0 0 0
237 1 4.479538880885334 34.507923284323134 8.84822797745351 0 0 0
238 1 6.6994351883201295 32.943726354531286 8.848212714352327 0 0 0
239 1 6.699504065722961 34.50795005634173 6.619311540589507 0 0 0
240 1 8.919394040344585 32.94376452311274 6.6192769412307975 0 0 0
241 1 8.919488373686756 34.507970441117614 4.390392112011196 0 0 0
242 1 11.139402532199194 32.94376932340683 4.3903429093954385 0 0 0
1569 1 11.139466278925019 6.351160557404187 19.992882582838106 0 0 0
1568 1 11.139546778276216 4.786970629972221 22.221767945331717 0 0 0
1567 1 8.919553676645702 6.351239222579836 22.221759529562853 0 0 0
1566 1 8.919584588001236 4.787009086686271 24.450671794801956 0 0 0
247 1 2.259580848894328 32.943645698941246 17.763885972555656 0 0 0
248 1 2.2595813563441465 34.50790293824237 15.534964323303573 0 0 0
249 1 4.479530894275911 32.94366905363398 15.53497356865653 0 0 0
250 1 4.479537166838178 34.507924526758465 13.306052479832319 0 0 0
251 1 6.699426396718865 32.94373174721786 13.306064630227725 0 0 0
252 1 6.699459226615076 34.50797575126558 11.077136546965386 0 0 0
253 1 8.919306089375018 32.943821193205515 11.077130564466843 0 0 0
254 1 8.919400046549228 34.50802743066254 8.848204442272177 0 0 0
255 1 11.139270998053183 32.94387238876834 8.848174072316134 0 0 0
256 1 11.139378152452805 34.508059221731855 6.619264969014576 0 0 0
257 1 13.359293972990127 32.94388807134561 6.619211366988283 0 0 0
258 1 13.359421214271576 34.508040286600476 4.390334132641246 0 0 0
259 1 15.579415607653207 32.94382422268703 4.390260497856622 0 0 0
1565 1 6.699585004093523 6.351267856599618 24.45067028772184 0 0 0
1718 1 22.239350165877866 1.6585065919456794 11.077089220101994 0 0 0
1719 1 22.239383948769152 3.2226626099998232 8.848098675007993 0 0 0
1562 1 24.459450814523432 4.786890860404197 4.390196893418924 0 0 0
264 1 2.2595877005134395 32.94363843751729 22.22173612485843 0 0 0
265 1 2.259587637863377 34.50789594606283 19.992807377452326 0 0 0