LAMMPS data file via write_data, version 2 Aug 2023, timestep = 1008, units = metal

7201 atoms
3 atom types

0.0399820735811378 53.3192177019984 xlo xhi
0.0945082258717223 37.636143774128556 ylo yhi
-22.325691657309484 75.684891432889 zlo zhi

Masses

1 183.84
2 1.008
3 4.0026

Atoms # atomic

1 1 2.260295291579364 36.071960792844976 0.005160327072051191 0 0 0
2 1 6.700218432872415 36.07191134842916 0.004944816045828939 0 0 0
3 1 11.140151997846347 36.0718888257789 0.004982563823341899 0 0 0
4 1 15.580002376755555 36.0719126240843 0.004918483129110629 0 0 0
5 1 20.019953312986836 36.07192724945645 0.0047017023038029735 0 0 0
6 1 24.45999593327048 36.07196072096928 0.0046922987515320615 0 0 0
1703 1 24.459960055963236 3.2229794201501694 2.1637240161754723 0 0 0
8 1 2.2603043269314704 32.943500609705715 0.0049592255384471855 0 0 0
9 1 4.48026844605732 34.50771514658525 0.004991834878471527 0 0 0
10 1 6.7002393427988185 32.943444657960576 0.0049409582903984315 0 0 0
11 1 8.920203465049513 34.507657658345536 0.004987120920415862 0 0 0
12 1 11.140161864224995 32.94343119177565 0.005016547859520996 0 0 0
13 1 13.36010228569629 34.50765950979669 0.0049392661327176965 0 0 0
14 1 15.580041550608652 32.943418686412514 0.004895842956884494 0 0 0
15 1 17.799987672386997 34.507679488595095 0.004793246503513194 0 0 0
16 1 20.02002742063813 32.94344513501614 0.004599548032465343 0 0 0
17 1 22.2400097134671 34.507718555822706 0.004612703358905066 0 0 0
18 1 24.460074803389194 32.94344572889548 0.00476528873562337 0 0 0
1682 1 22.239958848680185 1.65874780931044 2.1637173809462316 0 0 0
20 1 2.2602988954369496 29.814971932308186 0.00483083632312698 0 0 0
21 1 4.480281597318611 31.379219181754536 0.004884645940115412 0 0 0
22 1 6.700254711227097 29.81498146730157 0.004920797976672147 0 0 0
23 1 8.920224196271393 31.379216350722206 0.005026326444031884 0 0 0
24 1 11.140172318381284 29.814983355701656 0.005003106802261123 0 0 0
25 1 13.360118068945601 31.37918942690483 0.004976971632131377 0 0 0
26 1 15.58010784795938 29.814970240550405 0.004883110491164145 0 0 0
27 1 17.80006675161099 31.37920416551477 0.004702794669250309 0 0 0
28 1 20.020151408187527 29.81494453255798 0.004808413680156303 0 0 0
29 1 22.240113543492733 31.379178616791133 0.004789446503717623 0 0 0
30 1 24.460112845343897 29.814941683031655 0.005011359018874862 0 0 0
1681 1 20.019971494566015 3.222976045504507 2.1637020401197384 0 0 0
32 1 2.2603163023919524 26.686449638626797 0.004918687569861822 0 0 0
33 1 4.480283766880982 28.250722440428056 0.004865348469377862 0 0 0
34 1 6.700232116360746 26.686504343954983 0.004911695598930659 0 0 0
35 1 8.920222965029321 28.250759552214824 0.004955293857586043 0 0 0
36 1 11.140182918857976 26.68654524840992 0.004846658954068711 0 0 0
37 1 13.360175735992872 28.250768049532994 0.004938702665166726 0 0 0
38 1 15.580243909583412 26.686530632193833 0.0047420822417121936 0 0 0
39 1 17.800215936273883 28.250713400093474 0.004771921991266964 0 0 0
40 1 20.020263657164527 26.686461240566427 0.005031800476680672 0 0 0
41 1 22.240182222418646 28.250703593350607 0.005046188489659166 0 0 0
42 1 24.46024797675935 26.686530987446876 0.005461303095425325 0 0 0
1661 1 17.800006509790517 1.658746193248235 2.163771160813366 0 0 0
44 1 2.2603153501305178 23.557973749743308 0.005114549419864926 0 0 0
45 1 4.480268765993932 25.122227311177443 0.004964986981312871 0 0 0
46 1 6.700200604390622 23.558018098224768 0.004937159270320943 0 0 0
47 1 8.920201693960124 25.12229672602879 0.004829405295401024 0 0 0
48 1 11.140205331323568 23.558080374375848 0.00464092830161172 0 0 0
49 1 13.360247444470742 25.122320480172682 0.004718366607432893 0 0 0
50 1 15.580318774776671 23.55805671352163 0.004559398347100602 0 0 0
51 1 17.800352002903676 25.122253487206464 0.004824883652712525 0 0 0
52 1 20.020540325956834 23.55796647686226 0.004927218089335179 0 0 0
53 1 22.240423768512855 25.122230066301015 0.0051384294364974605 0 0 0
54 1 24.46054256507789 23.558257756825085 0.005615416853400165 0 0 0
1660 1 15.580038756200606 3.2229787854062386 2.1638936609138644 0 0 0
56 1 2.2602930228335634 20.429560316975984 0.005207612817512925 0 0 0
57 1 4.4802538888445875 21.993774613099895 0.0050838146158810405 0 0 0
58 1 6.700199900426357 20.429560389494377 0.004956713139300582 0 0 0
59 1 8.920195578237623 21.993812141038486 0.004725859826736458 0 0 0
60 1 11.140200169435996 20.42956129028714 0.004543542233300871 0 0 0
61 1 13.360273530327204 21.993825274019358 0.004522604815012682 0 0 0
62 1 15.580362672324457 20.429565237831483 0.0044797628470903544 0 0 0
63 1 17.800430344501322 21.993800417996255 0.004760542988982989 0 0 0
64 1 20.020550007720814 20.42957347543024 0.004752393351432389 0 0 0
65 1 22.240989510140384 21.993659806115264 0.004844338014531284 0 0 0
66 1 24.462719223434434 20.429608132488163 0.00263769129427462 0 0 0
1644 1 13.360103932477095 1.6587439800199382 2.163970079033816 0 0 0
68 1 2.260315493921653 17.301146279391713 0.005113181103188136 0 0 0
69 1 4.480254179470346 18.86534594449099 0.005083181106838364 0 0 0
70 1 6.700201649958939 17.30110283573332 0.004936453768444024 0 0 0
71 1 8.920196088375134 18.86530916697097 0.004725842209490008 0 0 0
72 1 11.140206671770757 17.301042280602438 0.004640496760075949 0 0 0
73 1 13.360274198548494 18.865300186592208 0.004522243234407812 0 0 0
74 1 15.580321266334355 17.301073735663984 0.004556503671705923 0 0 0
75 1 17.800432281471288 18.865336498428732 0.004757059954508596 0 0 0
76 1 20.02054627821941 17.301178403207377 0.004917230505767773 0 0 0
77 1 22.240995762233823 18.8655044176889 0.004829266444084952 0 0 0
78 1 24.46055438515978 17.300924366732044 0.0055662809322183475 0 0 0
1643 1 11.140130147743418 3.222994224321268 2.1639481197926718 0 0 0
80 1 2.2603169181946905 14.172669911880034 0.00491699256301061 0 0 0
81 1 4.480269426814584 15.736893385339329 0.004963537886493247 0 0 0
82 1 6.700233267011738 14.172616405374038 0.00491052259047795 0 0 0
83 1 8.920203068142992 15.736824700090219 0.004829184251124623 0 0 0
84 1 11.140185462466931 14.172577506367608 0.0048454609022259044 0 0 0
85 1 13.360249785091332 15.736805279041379 0.004716734189701234 0 0 0
86 1 15.5802473502194 14.172598598081208 0.004738090114130905 0 0 0
87 1 17.800356770662297 15.736882602877909 0.004815968536725642 0 0 0
88 1 20.020271107100513 14.172678626978795 0.00501879921716771 0 0 0
89 1 22.24043288818019 15.736923980067667 0.005117411580392227 0 0 0
90 1 24.460254532718636 14.172623232536774 0.005432404063230539 0 0 0
1631 1 8.920198612279426 1.658742970345709 2.163889326543505 0 0 0
92 1 2.2602995722706694 11.044147174178411 0.004829852495865499 0 0 0
93 1 4.480284665318348 12.6083976774202 0.004863711046771138 0 0 0
94 1 6.700255953985653 11.044139222320569 0.0049185556078294515 0 0 0
95 1 8.920224723342475 12.608362266446242 0.004954144264441585 0 0 0
96 1 11.140175078059146 11.044139971960684 0.005000807157253053 0 0 0
97 1 13.360179105641135 12.608357214040282 0.004935840026337832 0 0 0
98 1 15.580111746389088 11.044157927859924 0.004879781512192412 0 0 0
99 1 17.800219673068007 12.608419566945107 0.004763291442527469 0 0 0
100 1 20.02015623473789 11.044190441740056 0.0047962014901396875 0 0 0
101 1 22.24018723525812 12.60843822695733 0.0050316911806139114 0 0 0
102 1 24.460116838890247 11.044198288881132 0.004996699396706741 0 0 0
1630 1 6.700253012341134 3.2229742667116206 2.1639286754488825 0 0 0
104 1 2.2603047709225983 7.915617814229076 0.004959197517646019 0 0 0
105 1 4.480282249069148 9.479900033752111 0.004883245887099842 0 0 0
106 1 6.700240231936469 7.915675685853398 0.0049384574612390975 0 0 0
107 1 8.920225920269388 9.479905211296542 0.005023965616826347 0 0 0
108 1 11.140163963737002 7.915691480668831 0.005014844282825595 0 0 0
109 1 13.360121248396426 9.479934895741694 0.004973724206101247 0 0 0
110 1 15.580044139788688 7.915707458590527 0.004893177286699795 0 0 0
111 1 17.800069639665107 9.479925581867809 0.004698413709742469 0 0 0
112 1 20.02002918899306 7.915686076182708 0.004593857188587599 0 0 0
113 1 22.240116487950992 9.479956728710484 0.004777148287822029 0 0 0
114 1 24.4600769969659 7.915687891815861 0.004755629754807081 0 0 0
1622 1 4.480290500575825 1.6587418729865149 2.1640667191567404 0 0 0
116 1 2.260295652269106 4.787157434429153 0.005160575274830178 0 0 0
117 1 4.480268785081138 6.351403814931006 0.004990880443332736 0 0 0
118 1 6.700218996489511 4.7872082827786695 0.004942985122203019 0 0 0
119 1 8.920205044812556 6.351463580417135 0.004984602472422923 0 0 0
120 1 11.140153165242106 4.787233602620841 0.0049816426017454405 0 0 0
121 1 13.360104356472261 6.351464300892197 0.004937989233730661 0 0 0
122 1 15.580004037622317 4.78721320501206 0.004917241511421805 0 0 0
123 1 17.799989842131364 6.351448218868948 0.004791780047561112 0 0 0
124 1 20.019953921962404 4.787202081728825 0.004701165685271845 0 0 0
125 1 22.24001113022084 6.351412944205732 0.004608062614817931 0 0 0
126 1 24.459996337190717 4.7871707469232465 0.004689578655576499 0 0 0
1621 1 2.260312706443643 3.222970605922312 2.164184266393139 0 0 0
128 1 2.2602861828802876 1.6587413034372531 0.005248254580584833 0 0 0
129 1 4.480242994157907 3.222953101131257 0.005081596055104585 0 0 0
130 1 6.700218279520154 1.658741774750758 0.004943638978847346 0 0 0
131 1 8.920211687344612 3.222985988767132 0.004910410759645281 0 0 0
132 1 11.140148502967396 1.6587433753370633 0.004974455113488216 0 0 0
133 1 13.360074369496141 3.2229900486675183 0.00501041657227251 0 0 0
134 1 15.57998230632356 1.658744874128575 0.004922970147759915 0 0 0
135 1 17.79995032352661 3.2229628619652555 0.004811107329249077 0 0 0
136 1 20.019936661268293 1.658746802348464 0.004734056928510665 0 0 0
137 1 22.239972674924175 3.2229628876778285 0.004714355453678595 0 0 0
138 1 24.45999155296994 1.6587477510598705 0.004811745392671891 0 0 0
1563 1 24.459965326237047 6.351388051778121 2.1636578281648546 0 0 0
140 1 4.480242826676395 0.09453030971991438 0.005081812192879339 0 0 0
141 1 8.920211164080147 37.63613454072185 0.0049118109378443655 0 -1 0
142 1 13.360073869848629 37.6361341176599 0.00501003387743563 0 -1 0
143 1 17.799949155535586 0.09452934140059176 0.004811879900027214 0 0 0
144 1 22.239972604317828 0.09453165620907518 0.004715040069824385 0 0 0
1542 1 22.239969406593357 4.787210445744407 2.1636272735749813 0 0 0
1541 1 20.02000345368505 6.351444944662851 2.163614516374357 0 0 0
1521 1 17.800026152198033 4.78721701692425 2.1637904466260305 0 0 0
1520 1 15.580078499640955 6.35145905630173 2.163881284586552 0 0 0
1240 1 15.580176779362887 12.608414724496157 2.1637814689267305 0 0 0
1504 1 13.360118215622302 4.787236097153139 2.163935836633877 0 0 0
1224 1 13.360172575866521 11.044171340875932 2.1639404408574725 0 0 0
1503 1 11.140158576571505 6.351467196811698 2.1639642016484566 0 0 0
1491 1 8.920205180693932 4.787207804483012 2.163925361107716 0 0 0
1490 1 6.700227186340848 6.351448347365299 2.1639167949349716 0 0 0
1223 1 11.140194207349207 12.608403801313358 2.163910741343815 0 0 0
1211 1 8.92022360161102 11.044161271492966 2.1639582348951856 0 0 0
1482 1 4.480296784040309 4.787204580551887 2.164009580745525 0 0 0
148 1 4.480296364781064 36.07191440076547 2.1640103545323623 0 0 0
153 1 8.920204361349725 36.07191337926637 2.163927421289591 0 0 0
160 1 13.360116773888791 36.07188838436212 2.1639364597422484 0 0 0
169 1 17.800024324438468 36.07191132650839 2.163792153085486 0 0 0
180 1 22.239968720717442 36.07192178142002 2.1636290701782563 0 0 0
1481 1 2.260305833994572 6.351448682939565 2.1640246039932607 0 0 0
1423 1 24.46001306881019 9.479821411321593 2.163825961615923 0 0 0
221 1 2.2603049805701274 34.50766967660938 2.1640245761807937 0 0 0
222 1 4.48028442980518 32.94343163553672 2.16390390013629 0 0 0
230 1 6.70022597267435 34.50767189441917 2.163918892846979 0 0 0
231 1 8.920208587541728 32.94343690464435 2.1639722773048957 0 0 0
243 1 11.140157338740183 34.50765587048043 2.163965824707201 0 0 0
244 1 13.360126482302103 32.94343155357606 2.1639394758671413 0 0 0
260 1 15.580075889925531 34.507667421078175 2.1638832911319565 0 0 0
261 1 17.8000733593693 32.94341714017067 2.163710002340918 0 0 0
281 1 20.020001374822648 34.50768600439003 2.1636176966520826 0 0 0
282 1 22.24003276753342 32.943514429711996 2.163658422948904 0 0 0
303 1 24.459963869107774 34.507746864214425 2.163664039780507 0 0 0
1402 1 22.240036114309092 7.915620863751407 2.163649921733573 0 0 0
1401 1 20.02005826136253 9.479877701585995 2.1636548049527127 0 0 0
361 1 2.260296267820661 31.379199640781614 2.1638491504893036 0 0 0
362 1 4.48028230025018 29.81496493147172 2.1638255231530072 0 0 0
370 1 6.700229457785494 31.379201675996654 2.1639015051396004 0 0 0
371 1 8.920221999461413 29.81496020921282 2.163960099822527 0 0 0
383 1 11.140173938008544 31.37919724958361 2.1639859211386314 0 0 0
384 1 13.360169073329848 29.814953394817476 2.1639436911815966 0 0 0
400 1 15.580124837416967 31.379191047247996 2.163847820980605 0 0 0
401 1 17.800133427206404 29.814998273367088 2.163733134149535 0 0 0
421 1 20.020053555419995 31.37925687674094 2.1636647645613727 0 0 0
422 1 22.240058503759233 29.815052641853164 2.1638684322382944 0 0 0
443 1 24.460010456859248 31.37931783324673 2.1638389246109817 0 0 0
1381 1 17.800076099222792 7.915712236295426 2.1637069595836205 0 0 0
1380 1 15.580128755789554 9.479935430997545 2.1638447174072812 0 0 0
501 1 2.2603094433180653 28.250730904024866 2.163819206028422 0 0 0
502 1 4.480298320133332 26.686500680387372 2.1638783388025704 0 0 0
510 1 6.7002368690856615 28.250737840059926 2.1638774908053833 0 0 0
511 1 8.920248062121956 26.68648597957968 2.1638479894319387 0 0 0
523 1 11.140191263299515 28.250718757025673 2.1639129193908224 0 0 0
524 1 13.360233196768538 26.686478772089842 2.1638044227090085 0 0 0
540 1 15.58017148996639 28.25071367033087 2.163786360224138 0 0 0
541 1 17.800186743211498 26.68652068016539 2.1637772212252053 0 0 0
561 1 20.020092476804034 28.2507917221948 2.163889791250313 0 0 0
562 1 22.240116570034726 26.686545107806836 2.1640965610850635 0 0 0
583 1 24.460039871446153 28.250884732395754 2.164196677211597 0 0 0
1364 1 13.360129361884768 7.915693237345648 2.1639368259919847 0 0 0
1363 1 11.140176629997196 9.47992536689151 2.1639833992100734 0 0 0
641 1 2.260333166654449 25.12226258171245 2.1639846563961616 0 0 0
642 1 4.480321359427168 23.558031265404114 2.1639989396511554 0 0 0
650 1 6.700260818180582 25.12226563447758 2.163887784002226 0 0 0
651 1 8.920274449688533 23.55802118006578 2.163733770166465 0 0 0
663 1 11.140232534159331 25.122255483246633 2.1637221477718533 0 0 0
664 1 13.36026834678519 23.558026741444657 2.163560708796407 0 0 0
680 1 15.580226249839027 25.122239625740825 2.163620088345157 0 0 0
681 1 17.800291317645943 23.558009532621167 2.163739384453065 0 0 0
701 1 20.020207491896027 25.12223698432024 2.1639475143467184 0 0 0
702 1 22.240284949319268 23.55801890605986 2.1640170612097482 0 0 0
723 1 24.46010867703261 25.122370771608143 2.1645405748581608 0 0 0
1351 1 8.92021046792974 7.915684330974712 2.1639695972488617 0 0 0
1350 1 6.700230666538889 9.479918587774534 2.163899083745549 0 0 0
781 1 2.2603346276058023 21.993793233829464 2.1641395002100556 0 0 0
782 1 4.4803336754116145 20.429559967733223 2.164073287434513 0 0 0
790 1 6.7002942211637615 21.993792503587354 2.1639079908041676 0 0 0
791 1 8.920296590289798 20.429560413776752 2.1636792320212757 0 0 0
1797 1 24.459959762547296 0.09451694222458873 2.163725082812167 0 0 0
803 1 11.140249135049517 21.99378817152677 2.163549081842425 0 0 0
804 1 13.360288434257734 20.42956185195985 2.1634615752322417 0 0 0
820 1 15.580266848649162 21.99377773280524 2.163472564270874 0 0 0
821 1 17.800333636801987 20.429566153835975 2.163662143315876 0 0 0
841 1 20.020437645770766 21.993728818208442 2.1637562482669614 0 0 0
842 1 22.240763421434703 20.429572905832163 2.16348834493175 0 0 0
863 1 24.460171283804733 21.993506761014725 2.1641930957105453 0 0 0
1342 1 4.480285285930125 7.915687928450933 2.1639025134047936 0 0 0
1341 1 2.260297144102747 9.479919055245045 2.1638483816769227 0 0 0
921 1 2.2603346532087296 18.865326615661672 2.164138967393176 0 0 0
1786 1 20.019970816298418 0.09451838972848492 2.1637028020163016 0 0 0
922 1 4.480321850260243 17.301088897498857 2.16399761861824 0 0 0
930 1 6.700294584375189 18.86532783480747 2.1639076300164932 0 0 0
931 1 8.920275316232305 17.30109985281976 2.1637334771507253 0 0 0
943 1 11.140249997209127 18.865333796236573 2.1635489785136484 0 0 0
944 1 13.360270813148295 17.301097483737884 2.1635593915990414 0 0 0
960 1 15.58026877367606 18.865350508389067 2.163470818769107 0 0 0
961 1 17.800296318977153 17.301123582292973 2.1637324384987484 0 0 0
981 1 20.020441499692225 18.86540973549767 2.1637495387533194 0 0 0
982 1 22.240297960880948 17.301131532868794 2.163994805054809 0 0 0
1776 1 15.580037645171938 0.09451184224066692 2.1638940667084827 0 0 0
1003 1 24.460188551783716 18.865655266268625 2.164145658909921 0 0 0
1283 1 24.460045734824345 12.608263332744958 2.164175618602055 0 0 0
1262 1 22.240064228959568 11.044085086274942 2.1638542760207975 0 0 0
1061 1 2.2603334135903346 15.736856918717091 2.163982887943072 0 0 0
1062 1 4.480299307811315 14.172619492209497 2.16387667759321 0 0 0
1070 1 6.700261572980356 15.736854737251177 2.1638867860557265 0 0 0
1071 1 8.920249770064494 14.172634916216749 2.1638472250436176 0 0 0
1768 1 11.140129901631973 37.63612830305937 2.1639484665089492 0 -1 0
1083 1 11.140234797712948 15.736866548462219 2.1637213398937463 0 0 0
1084 1 13.36023698051961 14.172645644938969 2.1638017181590707 0 0 0
1100 1 15.580230168114793 15.73688883861094 2.1636159961220294 0 0 0
1101 1 17.800193795622516 14.172612134385606 2.1637678742615933 0 0 0
1121 1 20.020216663669352 15.736902243327021 2.1639340107337772 0 0 0
1762 1 6.700252402755361 0.09451010112516485 2.1639294397084305 0 0 0
1122 1 22.240125912976094 14.172600743559581 2.1640774497947177 0 0 0
1143 1 24.46011957729147 15.736788393495289 2.164503566046303 0 0 0
1261 1 20.020099248007664 12.608345023758655 2.16387626975476 0 0 0
1758 1 2.260312224342369 0.09451227619456404 2.164184056821445 0 0 0
1241 1 17.800138807661405 11.044134318008458 2.1637259500446056 0 0 0
1201 1 2.260310034048983 12.608388532068338 2.1638175124829226 0 0 0
1202 1 4.4802832753970305 11.044154579971744 2.1638238756713317 0 0 0
1210 1 6.700238259303631 12.60838267517733 2.1638754732834653 0 0 0
7 1 0.040356183429083196 34.50774880004933 0.005080390618218188 0 0 0
19 1 0.0403490544961033 31.379256243269467 0.0048611518123619635 0 0 0
31 1 0.04035359228269866 28.250706409505877 0.0048476506304475486 0 0 0
1197 1 0.04034908481476544 11.044141436816172 2.1638033097964096 0 0 0
43 1 0.04037669585703616 25.12219160411222 0.005059617829075051 0 0 0
1057 1 0.04036633062428493 14.17261572608929 2.163913409656072 0 0 0
55 1 0.040396597981980274 21.99376201539897 0.005240044882100988 0 0 0
1337 1 0.040345373952210224 7.915679340998152 2.1639396773399655 0 0 0
67 1 0.04039653878093865 18.86535783897541 0.005239392623327117 0 0 0
917 1 0.040393338173760444 17.301084484050197 2.16413048856815 0 0 0
79 1 0.04037693159158552 15.736927562394886 0.005057586221170475 0 0 0
777 1 0.04040280946894194 20.429559446166667 2.1642222353973057 0 0 0
91 1 0.040354092805122 12.60841201635282 0.0048457785732483934 0 0 0
637 1 0.040393167902561915 23.558034535540436 2.1641321237396913 0 0 0
103 1 0.04034973469550944 9.479861715334083 0.004860970704769828 0 0 0
497 1 0.04036604685716821 26.68650309620753 2.163915431453702 0 0 0
115 1 0.04035647871391844 6.351368871920222 0.0050810105576583695 0 0 0
357 1 0.04034840608957882 29.814977145085347 2.1638043833541056 0 0 0
127 1 0.040350000521142744 3.222949951437145 0.005260955980421854 0 0 0
139 1 0.04035004997805659 0.09453235406149219 0.005260617703239969 0 0 0
1477 1 0.04034193295312517 4.787219926020951 2.1641414597373436 0 0 0
217 1 0.04034471929662635 32.94343901140289 2.1639396582106665 0 0 0
1617 1 0.04033333927344589 1.6587408332017475 2.1642273219529633 0 0 0
145 1 0.04034180871347248 36.07189763777075 2.164141232495666 0 0 0
1598 1 15.579939886146366 6.351433647850525 24.450608294689435 0 0 0
1596 1 24.459889193013833 6.351423634974987 11.077054676522211 0 0 0
147 1 2.260293588759698 36.07190034692107 4.390688182531489 0 0 0
1595 1 24.45986800105239 4.787201106249875 13.305939535150882 0 0 0
1594 1 22.23990450716182 6.351466829204448 13.305940573407225 0 0 0
150 1 2.2602701515673416 36.07188047763345 8.848431168690205 0 0 0
151 1 4.4802654567781826 36.07190218843438 6.619490114527222 0 0 0
152 1 6.700238791430384 36.07190628413209 4.390527902070044 0 0 0
1593 1 22.23988011430685 4.787217764763032 15.534846391651088 0 0 0
1592 1 20.01990923709627 6.351455217081162 15.534877471497433 0 0 0
155 1 2.260219864051113 36.07189362503116 13.306202318892106 0 0 0
156 1 4.480228194191515 36.07189288118347 11.0772764177878 0 0 0
157 1 6.700207982336242 36.07191042063636 8.848327855736157 0 0 0
158 1 8.920192029614524 36.07190613796198 6.6194091815125775 0 0 0
159 1 11.140145189393559 36.07189163077146 4.3905394846034245 0 0 0
1591 1 20.019899508830328 4.787218841854704 17.763762536466192 0 0 0
1590 1 17.799944055274153 6.351450716353318 17.76380717765532 0 0 0
162 1 2.260195994375039 36.071895977725895 17.76398841430155 0 0 0
163 1 4.4801928562687845 36.07190914310294 15.5350704583635 0 0 0
164 1 6.700183703310091 36.0719021798885 13.306134089609962 0 0 0
165 1 8.920162130880206 36.071902332329415 11.077216576194534 0 0 0
166 1 11.140144234570458 36.071897583604574 8.848306328005222 0 0 0
167 1 13.360115140322517 36.071886072099716 6.619424254447341 0 0 0
168 1 15.580074501312858 36.071906932001276 4.3904729107473255 0 0 0
1589 1 17.799925039910264 4.787194321122007 19.992718065750637 0 0 0
1588 1 15.579966576797846 6.351428270605564 19.99277278979385 0 0 0
171 1 2.260157875985801 36.071896640345436 22.221754355917145 0 0 0
172 1 4.480166070376648 36.071889920327216 19.992871036472508 0 0 0
173 1 6.700144584599869 36.07190388042013 17.76395965686022 0 0 0
174 1 8.920138102806074 36.07190015136491 15.5350287961027 0 0 0
175 1 11.140101675933689 36.07189851513506 13.3060984605886 0 0 0
176 1 13.36008840409236 36.07188903937082 11.077172137546935 0 0 0
177 1 15.580046839226863 36.071869441888985 8.848247973916484 0 0 0
178 1 17.800032016846778 36.0719047934417 6.6192574912910915 0 0 0
179 1 20.019974323577944 36.071918747463705 4.390278732042517 0 0 0
1587 1 15.579956569835435 4.7871974612646975 22.221693709599233 0 0 0
181 1 4.480123633081488 36.07190237174943 24.450651801072844 0 0 0
182 1 6.700127831014734 36.0718947696709 22.221766119589873 0 0 0
183 1 8.92010101507336 36.071907428671935 19.99287156468118 0 0 0
184 1 11.140078478250162 36.071909772614305 17.763913786613077 0 0 0
185 1 13.36005395328455 36.07189758024245 15.534978295857 0 0 0
186 1 15.580025770164163 36.07187240990846 13.306024555138752 0 0 0
187 1 17.799992664401216 36.071881609050315 11.077084205746047 0 0 0
188 1 20.019970546608906 36.071904549976765 8.848119834783239 0 0 0
189 1 22.239937298087597 36.0719367686337 6.619201493994358 0 0 0
190 1 24.45993974588814 36.07195468332847 4.390297684719426 0 0 0
1586 1 13.359995442683573 6.351445572292744 22.22172616620818 0 0 0
192 1 8.920064714855751 36.071889579138045 24.450693263673838 0 0 0
193 1 11.14004351754072 36.07190458663063 22.221773464566148 0 0 0
194 1 13.360015200656399 36.07191309463393 19.992815085655003 0 0 0
195 1 15.579986030945072 36.07190516792213 17.76384686292562 0 0 0
196 1 17.79995800352909 36.071886320100305 15.534881754075297 0 0 0
197 1 20.019922170924968 36.07190185506426 13.305943569988777 0 0 0
198 1 22.23991497928983 36.07191070164152 11.077011584748366 0 0 0
199 1 24.459886043828718 36.071944874556316 8.848129782701049 0 0 0
1585 1 13.359980457248236 4.7872156535070145 24.450673087902832 0 0 0
201 1 13.359980385791715 36.0719031576102 24.450673387718492 0 0 0
202 1 15.579956333710935 36.071921949983484 22.221694370675827 0 0 0
203 1 17.799924694089558 36.07192609455392 19.992718946585594 0 0 0
204 1 20.019898676382706 36.07190280230687 17.76376406629418 0 0 0
205 1 22.239879662298673 36.071905733595756 15.534848155514169 0 0 0
206 1 24.45986763175113 36.071924452301666 13.30594203101938 0 0 0
1584 1 11.14002528558497 6.351464495279133 24.450664480999052 0 0 0
208 1 17.799910836285886 36.07192879372627 24.450577211439306 0 0 0
209 1 20.019876071962017 36.07193603191704 22.221613022322643 0 0 0
210 1 22.239849407904234 36.07192523544759 19.99267487784203 0 0 0
211 1 24.459821187443577 36.071910868119254 17.763760309391206 0 0 0
1599 1 17.799911012297436 4.787190386622509 24.450576726932347 0 0 0
213 1 22.239832795821442 36.07193755042396 24.450533712966237 0 0 0
214 1 24.459813371668726 36.07193829955626 22.221603612827924 0 0 0
1600 1 17.799913253855003 6.351410215939915 22.22165105452019 0 0 0
1581 1 24.45994350414732 6.35136671868456 6.619216063856278 0 0 0
1580 1 24.459886576812213 4.787184722409741 8.848126585267082 0 0 0
1579 1 22.23994066971103 6.35141091077137 8.848110960799486 0 0 0
1578 1 22.239916023662865 4.787216046813879 11.077008484071124 0 0 0
220 1 2.2602925093983135 32.94341751107119 4.390513929903156 0 0 0
1577 1 20.019973377234347 6.351465422210542 11.077052910330286 0 0 0
1576 1 20.01992271500691 4.787222508507881 13.305941690079282 0 0 0
1575 1 17.799978019167355 6.351466376339615 13.305993995975639 0 0 0
1574 1 17.799958660710445 4.787235859816426 15.534880410314827 0 0 0
225 1 2.260259743959462 32.943420207688646 8.848321547261417 0 0 0
226 1 2.2602830558548064 34.50765931784665 6.619486056573114 0 0 0
227 1 4.480263294485706 32.943431655936266 6.619387300810564 0 0 0
228 1 4.480286633265191 34.50765641969388 4.390551060576368 0 0 0
229 1 6.700222685201423 32.943431336493695 4.390514433358234 0 0 0
1573 1 15.580000688538938 6.35146932112302 15.534939151597037 0 0 0
1572 1 15.579986742518843 4.7872152492342295 17.76384574869079 0 0 0
1571 1 13.360036884397566 6.351443778879041 17.763882154132528 0 0 0
1570 1 13.360015477564756 4.787206347568549 19.992814607599296 0 0 0
234 1 2.2602319842151175 32.94341709673541 13.306123819447008 0 0 0
235 1 2.260252316510158 34.507648739207006 11.07726763664852 0 0 0
236 1 4.480227750619848 32.94342767267833 11.077205686757294 0 0 0
237 1 4.480243059564912 34.50766908845977 8.848342366995468 0 0 0
238 1 6.700201834903898 32.94343016798089 8.848293749225963 0 0 0
239 1 6.700217698371148 34.50767082678924 6.619410730767779 0 0 0
240 1 8.920189554286239 32.943429797619835 6.619422004736965 0 0 0
241 1 8.920199218771623 34.507681115453714 4.390541935997042 0 0 0
242 1 11.140175589435767 32.94343254988641 4.3905612391085285 0 0 0
1569 1 11.140054441473202 6.351453967378264 19.992826756577845 0 0 0
1568 1 11.1400436774526 4.787213955149853 22.22177307474292 0 0 0
1567 1 8.920085695375937 6.351462537218568 22.2217549994826 0 0 0
1566 1 8.920064779510335 4.787228060127188 24.450693053077647 0 0 0
247 1 2.2601991140027775 32.94342217026201 17.763941876851245 0 0 0
248 1 2.260208408413607 34.50765987326704 15.535062107884524 0 0 0
249 1 4.48019513850154 32.94343158412555 15.535015973866026 0 0 0
250 1 4.480212713016898 34.50766744942506 13.306136129793149 0 0 0
251 1 6.70017858889634 32.94343645809437 13.30609467179303 0 0 0
252 1 6.700192020226654 34.50767316655407 11.077214629372648 0 0 0
253 1 8.92015932037388 32.943427992837925 11.077184323821234 0 0 0
254 1 8.920174914238316 34.50765680770008 8.84830976417895 0 0 0
255 1 11.140131269157969 32.94342035112807 8.848329332743921 0 0 0
256 1 11.140147530636012 34.50765210701317 6.619434460356918 0 0 0
257 1 13.360135088937183 32.94340580881066 6.619423443930937 0 0 0
258 1 13.360127749698206 34.507630582439084 4.390539953479397 0 0 0
259 1 15.580083208261485 32.94342063179408 4.390449321533399 0 0 0
1565 1 6.700100094926187 6.351471264368595 24.4506600471993 0 0 0
1718 1 22.239894634888202 1.6587454644385422 11.077017490130133 0 0 0
1719 1 22.239926648228394 3.2229970332373337 8.848116530667395 0 0 0
1562 1 24.459940087265558 4.787178240185968 4.390294293107453 0 0 0
264 1 2.260167030407726 32.94343117725818 22.221742876622105 0 0 0
265 1 2.260184500965033 34.50765562096285 19.992862498678793 0 0 0
266 1 4.480164401173541 32.943417486180955 19.99283321093118 0 0 0
267 1 4.480183281539763 34.50766147921065 17.763948116059893 0 0 0
268 1 6.700139514236958 32.943427455785105 17.763908378681784 0 0 0
269 1 6.700165430768733 34.50766761583637 15.535026224703481 0 0 0
270 1 8.920127993792974 32.9434277833962 15.534993604459233 0 0 0
271 1 8.920149292731105 34.50767045134476 13.30610257210995 0 0 0
272 1 11.140109111621104 32.94341291171157 13.306091217120887 0 0 0
273 1 11.140118902684112 34.507657778832744 11.077203073971855 0 0 0
274 1 13.360084819591574 32.94340321595275 11.077212669787482 0 0 0
275 1 13.36010491133923 34.50765873197589 8.848310830358816 0 0 0
276 1 15.580077238959195 32.9433950049463 8.848242666342093 0 0 0
277 1 15.580068412214603 34.507634435358916 6.619358930088935 0 0 0
278 1 17.800043537055622 32.94343121435464 6.619273962434162 0 0 0
279 1 17.800044415344956 34.50767399285926 4.390330314667787 0 0 0
280 1 20.020021993104518 32.943487396339364 4.390274858001412 0 0 0
1561 1 22.239969483563463 6.351401722239279 4.390238818444959 0 0 0
1560 1 22.239938129057226 4.787193603882499 6.619198374331293 0 0 0
283 1 2.260141065664242 34.50768325629415 24.450637819328048 0 0 0
284 1 4.480130095286537 32.94342708042334 24.450641341409366 0 0 0
285 1 4.480143064071794 34.50764962424893 22.221744079365113 0 0 0
286 1 6.7001194090902425 32.943409385136476 22.221728214568046 0 0 0
287 1 6.700134416723422 34.50765771542277 19.99284856608345 0 0 0
288 1 8.92009496079469 32.94342143092091 19.992814280491924 0 0 0
289 1 8.920116970436503 34.507663602338816 17.76392384719281 0 0 0
290 1 11.140057896429635 32.94342475711112 17.76389915769863 0 0 0