LAMMPS data file via write_data, version 2 Aug 2023, timestep = 1101, units = metal

7201 atoms
3 atom types

0.03959179990238524 53.31960797567724 xlo xhi
0.09423358912355441 37.63641841087657 ylo yhi
-22.326076814717673 75.68527659029712 zlo zhi

Masses

1 183.84
2 1.008
3 4.0026

Atoms # atomic

1 1 2.260072622265231 36.07221476691606 0.005156539980616494 0 0 0
2 1 6.699637468876945 36.07224689680915 0.005140004518263248 0 0 0
3 1 11.139216007910054 36.07240212995733 0.00513545587454964 0 0 0
4 1 15.578987162731817 36.07267144957588 0.005014355147634638 0 0 0
5 1 20.01914307436463 36.072970015091194 0.004736142436331469 0 0 0
6 1 24.459791645287932 36.07316327392037 0.0045295123118442564 0 0 0
1703 1 24.459990922759726 3.222358198025763 2.163696858614613 0 0 0
8 1 2.2601094201824132 32.94373029101668 0.005162895831321918 0 0 0
9 1 4.479875764749897 34.50797848656735 0.005140272801246925 0 0 0
10 1 6.699658019381402 32.94377934759732 0.00511817554591414 0 0 0
11 1 8.919420586257557 34.50810256764224 0.005121771229753169 0 0 0
12 1 11.139199862024338 32.94405685095066 0.005055119719095821 0 0 0
13 1 13.359015026212525 34.50843576151059 0.005042097765989776 0 0 0
14 1 15.578785170692088 32.944539362574794 0.004818993882411572 0 0 0
15 1 17.798857952984633 34.508866362891126 0.004769406420304922 0 0 0
16 1 20.018637772712438 32.94519008019947 0.004472760448983516 0 0 0
17 1 22.239139880101355 34.50931850100838 0.004481500659064991 0 0 0
18 1 24.45926107189664 32.945834437992346 0.00404063332559639 0 0 0
1682 1 22.239716485608955 1.6584936891499398 2.1637944044552078 0 0 0
20 1 2.2601773365786357 29.815209680525754 0.00516914620162507 0 0 0
21 1 4.479903644280821 31.37948924658499 0.005137325890878751 0 0 0
22 1 6.699694098511654 29.815284712537622 0.005103470090575812 0 0 0
23 1 8.919419183003265 31.37965150570525 0.005072556733192107 0 0 0
24 1 11.139144751765194 29.815591206648293 0.004959960558924305 0 0 0
25 1 13.358908620940266 31.38008008730023 0.004876968766715651 0 0 0
26 1 15.578486468805355 29.816144343172912 0.004557646878097097 0 0 0
27 1 17.798447712117515 31.38075612752188 0.004491778154601741 0 0 0
28 1 20.01795229009389 29.817156152648696 0.004009807036548027 0 0 0
29 1 22.238425064335676 31.381761593622336 0.003934529579025897 0 0 0
30 1 24.458466976127557 29.8188114562686 0.002690433137086608 0 0 0
1681 1 20.01942674902519 3.2224141106229625 2.163882163180209 0 0 0
32 1 2.2602478627053193 26.686668761155524 0.00517400377210635 0 0 0
33 1 4.479967213314718 28.25096360901872 0.0051363409444608625 0 0 0
34 1 6.699743253893413 26.68675050323121 0.005093457819421532 0 0 0
35 1 8.919463162195743 28.25112440688441 0.005038892614086869 0 0 0
36 1 11.139171109855832 26.686954681709857 0.004901198606018844 0 0 0
37 1 13.358778828631078 28.251501748666627 0.004722654007946424 0 0 0
38 1 15.57832446201078 26.687399734908265 0.0043685865133389875 0 0 0
39 1 17.797950793010887 28.252300838610452 0.00415182755261646 0 0 0
40 1 20.017205312796545 26.688631273408763 0.0033485116933608537 0 0 0
41 1 22.23734511376709 28.25402064319886 0.0028411278014359967 0 0 0
42 1 24.457152299532744 26.69168801221477 -0.0003133533442718582 0 0 0
1661 1 17.79927155061111 1.6584938941229428 2.164041519267943 0 0 0
44 1 2.2603047783659993 23.558124228673506 0.005182259658753835 0 0 0
45 1 4.480033737945062 25.12241762622861 0.005136023253609649 0 0 0
46 1 6.699796484736289 23.558185472781542 0.005087828353236903 0 0 0
47 1 8.919492907476302 25.122549299077274 0.0050164779168412965 0 0 0
48 1 11.139181164462807 23.558267399425446 0.004888152163082028 0 0 0
49 1 13.358823539782792 25.122699885028503 0.00467021276328838 0 0 0
50 1 15.578493166939252 23.558417160672487 0.0044112156358630675 0 0 0
51 1 17.79777267410342 25.123276186828257 0.00391302891501284 0 0 0
52 1 20.01727235171538 23.558982549216612 0.003017380060326949 0 0 0
53 1 22.236357513544963 25.125315999863627 0.0012410051539011185 0 0 0
54 1 24.456178016210885 23.561721717604993 -0.00370746678493502 0 0 0
1660 1 15.579181880889932 3.2225321629259978 2.1641194463072786 0 0 0
56 1 2.2603238755035915 20.42958594035582 0.005187153436591499 0 0 0
57 1 4.480073493106179 21.99386352961618 0.0051381517157954755 0 0 0
58 1 6.699821722095559 20.429593081635208 0.005079002217938479 0 0 0
59 1 8.919498191430808 21.993919459804037 0.005017847528518514 0 0 0
60 1 11.139181421116485 20.429589231127213 0.004895216601070262 0 0 0
61 1 13.35888612644295 21.993953617286603 0.004684504291445152 0 0 0
62 1 15.578568543987078 20.429586240294825 0.004504558313160747 0 0 0
63 1 17.798162209115834 21.994025606610556 0.004211702419519273 0 0 0
64 1 20.01803238719822 20.429585799887672 0.003906501375994451 0 0 0
65 1 22.237503511628713 21.994343693227624 0.0021974373904946986 0 0 0
66 1 24.458785480508315 20.42958721352359 0.001814445854380081 0 0 0
1644 1 13.3592067196701 1.658494578512964 2.164186852131665 0 0 0
68 1 2.260305053195154 17.30104753270261 0.0051820403350463255 0 0 0
69 1 4.480072761060748 18.865316587459724 0.005137882103024781 0 0 0
70 1 6.699793760165214 17.300999425399308 0.005087281375593653 0 0 0
71 1 8.919495954726575 18.86526614907826 0.005018262375774497 0 0 0
72 1 11.139174922616672 17.300912666859286 0.00488841165852711 0 0 0
73 1 13.358886147841632 18.86521961543765 0.00468342778102905 0 0 0
74 1 15.578493756227308 17.300757293816293 0.0044088051505582135 0 0 0
75 1 17.798164191269187 18.865148324332775 0.004211538343737223 0 0 0
76 1 20.017274060644578 17.300189933527932 0.0030200296238439084 0 0 0
77 1 22.237501689558492 18.86483145269623 0.002197904328213769 0 0 0
78 1 24.45617655464015 17.29745255414678 -0.003709460192292361 0 0 0
1643 1 11.139302291963787 3.222653800970806 2.164205659848321 0 0 0
80 1 2.2602482667274675 14.172502121383602 0.005173408102181499 0 0 0
81 1 4.480032109986524 15.736760973685794 0.005135490771767102 0 0 0
82 1 6.699739770839282 14.172431906727846 0.005093211503932743 0 0 0
83 1 8.919486247509072 15.736635557706645 0.005017055893686573 0 0 0
84 1 11.13916168295949 14.172226923697474 0.004901478681361726 0 0 0
85 1 13.358818753479655 15.73647547018095 0.004667897880140753 0 0 0
86 1 15.578321536723953 14.171775332679601 0.004363394262987352 0 0 0
87 1 17.797775297916417 15.735899073483596 0.0039100679394609835 0 0 0
88 1 20.017208120001058 14.170541076420358 0.003346433075251627 0 0 0
89 1 22.236359185327288 15.733860084986677 0.0012462271267474582 0 0 0
90 1 24.457153871033558 14.16748902891691 -0.0003072746266767667 0 0 0
1631 1 8.919456137162408 1.6584949177954724 2.1642071196205057 0 0 0
92 1 2.2601779495037735 11.043960762903929 0.005168560491340364 0 0 0
93 1 4.479966574889565 12.608213343093604 0.0051359038402351495 0 0 0
94 1 6.699690652548488 11.043894378053977 0.005103553867488992 0 0 0
95 1 8.91945545082085 12.608057458199116 0.005039561940633057 0 0 0
96 1 11.139134512718373 11.043589825850825 0.004960872590464611 0 0 0
97 1 13.358769658714195 12.607676970723386 0.004721474269092541 0 0 0
98 1 15.578476477891812 11.043033356207012 0.004554120484172449 0 0 0
99 1 17.797949083072744 12.606876838343274 0.004145514188522946 0 0 0
100 1 20.017947434627587 11.04201829500582 0.004003223910584373 0 0 0
101 1 22.23734489353799 12.60515248640945 0.002837775222113418 0 0 0
102 1 24.458464755566975 11.040361030176257 0.002687720248857393 0 0 0
1630 1 6.6996523965790375 3.222721170686735 2.164182302860858 0 0 0
104 1 2.260109891229633 7.915440940184104 0.005162253989478464 0 0 0
105 1 4.479903804298492 9.47968567977636 0.005136898990961552 0 0 0
106 1 6.699656922111296 7.915397132643798 0.005118703357156837 0 0 0
107 1 8.919413752569698 9.479527427575997 0.005073684927163545 0 0 0
108 1 11.139191979692477 7.91512070336473 0.005057181998701596 0 0 0
109 1 13.358897802831796 9.479098276416236 0.004877689534568975 0 0 0
110 1 15.578771315266955 7.914635790141047 0.004818333054613846 0 0 0
111 1 17.79843501085188 9.478419390489153 0.004486420942232233 0 0 0
112 1 20.018625391294183 7.913984242283699 0.004466981195577268 0 0 0
113 1 22.23841896946883 9.477410464742198 0.003924379784625718 0 0 0
114 1 24.459255253033607 7.913337398186099 0.00403080162538517 0 0 0
1622 1 4.4798562282952705 1.6584941527619477 2.164174507430723 0 0 0
116 1 2.26007274101976 4.786956682797297 0.0051560600966150906 0 0 0
117 1 4.479875808220387 6.351194914942298 0.0051399628655391955 0 0 0
118 1 6.699637287206385 4.78692787159475 0.005140408626035537 0 0 0
119 1 8.919417295219276 6.351073616101599 0.005123231017240553 0 0 0
120 1 11.13921265475608 4.786773621740897 0.0051371885201827935 0 0 0
121 1 13.359006584901017 6.350740865869312 0.005044229776508468 0 0 0
122 1 15.578979391253453 4.786502739148884 0.005016031973130399 0 0 0
123 1 17.7988447990316 6.350308021499514 0.0047684738392172864 0 0 0
124 1 20.01913085505052 4.786202143117168 0.004735307971426033 0 0 0
125 1 22.239127446739786 6.349854073220428 0.004475932113348199 0 0 0
126 1 24.45977941098723 4.786008661769049 0.00452656916093138 0 0 0
1621 1 2.260054714792725 3.2227243955956615 2.1641859175488842 0 0 0
128 1 2.260059677028902 1.6584934663584117 0.005152551296413106 0 0 0
129 1 4.479856546771651 3.2227220768551277 0.005140988627682973 0 0 0
130 1 6.6996417061760285 1.6584947055287576 0.005149193085898918 0 0 0
131 1 8.919420950556125 3.2226806796516447 0.0051603491879259975 0 0 0
132 1 11.139229719510157 1.658494674920742 0.00517100082916877 0 0 0
133 1 13.359089944995173 3.2225720076625457 0.005131841461133653 0 0 0
134 1 15.579052530121352 1.6584937105017117 0.0050761682963525725 0 0 0
135 1 17.799084336500986 3.2224073121393637 0.004952295666448246 0 0 0
136 1 20.01929229684246 1.6584930914383962 0.004837945822435286 0 0 0
137 1 22.239542848368124 3.222287398034888 0.004702683845576793 0 0 0
138 1 24.459980215874836 1.6584942116442398 0.004662373467874626 0 0 0
1563 1 24.45972787415583 6.350048278720449 2.163456547409567 0 0 0
140 1 4.479856297102317 0.09426596594026648 0.005141149752651387 0 0 0
141 1 8.919421556759998 0.09430960844015601 0.005159577287304433 0 0 0
142 1 13.359092968076956 0.09441706682151363 0.00513088935087267 0 0 0
143 1 17.79909043496105 0.094579894854158 0.004951330244455486 0 0 0
144 1 22.23955123693652 0.09469933423684296 0.004702907557991257 0 0 0
1542 1 22.23956792479584 4.786251485687215 2.163693394063159 0 0 0
1541 1 20.019169705069146 6.350292919781836 2.1637117387512896 0 0 0
1521 1 17.79919876673404 4.7864553444932 2.16394341784125 0 0 0
1520 1 15.579078439374562 6.350667106271309 2.163983480986687 0 0 0
3802 1 26.679448352859314 21.99512942992969 -0.0052078673298182184 0 0 0
1504 1 13.359191746870714 4.78670418165633 2.1641529267950297 0 0 0
3817 1 26.679448520930258 18.86404105749918 -0.005210966212762557 0 0 0
1503 1 11.139282674028513 6.350984704945185 2.1641467999596355 0 0 0
1491 1 8.919460450492274 4.786900380801035 2.164182744032874 0 0 0
1490 1 6.699662395285764 6.351178382659328 2.164163877173812 0 0 0
1240 1 15.578564789274669 12.607478558755817 2.163502036089017 0 0 0
1224 1 13.35895933320481 11.043451029249017 2.163832155868878 0 0 0
1482 1 4.479860114964549 4.786961200544471 2.1641733607348095 0 0 0
148 1 4.479859946923351 36.072212135654816 2.164173583294288 0 0 0
153 1 8.91946230830414 36.072275043504575 2.164181502279742 0 0 0
160 1 13.359197393129133 36.072471034662335 2.1641511396420987 0 0 0
169 1 17.79920869651754 36.072719166052906 2.1639430222595575 0 0 0
180 1 22.23957936649642 36.072923256590734 2.163695849119393 0 0 0
1481 1 2.260082111679197 6.351196080058793 2.164188916768582 0 0 0
1423 1 24.459336917869273 9.477587022478163 2.1626713667287683 0 0 0
221 1 2.260081436159245 34.50797535648718 2.164189145844487 0 0 0
222 1 4.479894110544528 32.94372899522074 2.1641677139856257 0 0 0
230 1 6.699663429636419 34.50799719051944 2.1641635310760456 0 0 0
231 1 8.919465550971154 32.9438476649564 2.164133027304901 0 0 0
243 1 11.139287959502656 34.508191967641736 2.1641444877674214 0 0 0
244 1 13.3591060917971 32.944181047798196 2.1640116375160625 0 0 0
260 1 15.579087718013161 34.50850903522746 2.163982629156872 0 0 0
261 1 17.798911513917492 32.944654433738684 2.163724971098801 0 0 0
281 1 20.019180954857518 34.5088839422991 2.16371413939513 0 0 0
282 1 22.23917097812692 32.945160262334454 2.163362078166683 0 0 0
303 1 24.45973799388892 34.509126466104696 2.163464522062242 0 0 0
1402 1 22.239163004826086 7.914014728090178 2.1633522146137905 0 0 0
1401 1 20.018701793010198 9.478272002698446 2.1633344463829625 0 0 0
361 1 2.2601406322661246 31.379474713674384 2.1641934059119516 0 0 0
362 1 4.479949866642134 29.815218903583368 2.1641628049132824 0 0 0
370 1 6.699704090869504 31.379508521406294 2.16414226882089 0 0 0
371 1 8.919507919242106 29.815354792824955 2.16408873604008 0 0 0
383 1 11.139249867200293 31.379783551090778 2.164042488623941 0 0 0
384 1 13.358967696870426 29.815727540010457 2.1638327196333513 0 0 0
400 1 15.57884562427675 31.38022475378479 2.1637439829093084 0 0 0
401 1 17.79846684062444 29.816380305882095 2.163394319387103 0 0 0
421 1 20.018709354563455 31.380903298395054 2.163343944955537 0 0 0
422 1 22.238594830475552 29.817396565433505 2.1625965204518636 0 0 0
443 1 24.45934216514743 31.38158166744625 2.1626798873783124 0 0 0
1381 1 17.798901042078338 7.91452407737018 2.163722435073743 0 0 0
1380 1 15.578836263288897 9.478954044466997 2.163742642508221 0 0 0
501 1 2.2602149160377696 28.250947036982595 2.1641957561149217 0 0 0
502 1 4.480020120135424 26.686688551268166 2.164163202905449 0 0 0
510 1 6.699761248641366 28.25099751388111 2.164119217720254 0 0 0
511 1 8.919550512307561 26.68681704615412 2.164050923777285 0 0 0
523 1 11.139267894281453 28.25123159112788 2.1639589191852853 0 0 0
524 1 13.358956246736776 26.687057477030503 2.163704875729387 0 0 0
540 1 15.578570589256435 28.25169711249925 2.1635071775846275 0 0 0
541 1 17.797960593663852 26.68778963008642 2.1630485224019993 0 0 0
561 1 20.018034999385367 28.25270785821223 2.162780332577486 0 0 0
562 1 22.237647039593913 26.689543944981605 2.16112920839487 0 0 0
583 1 24.458741057470448 28.254483007976045 2.160615734388914 0 0 0
1364 1 13.359096457742485 7.914996502062821 2.1640131847214206 0 0 0
1363 1 11.139241586298365 9.479396299902769 2.1640443066442248 0 0 0
641 1 2.2602876738018334 25.122400792414574 2.164199398675427 0 0 0
642 1 4.480077482338976 23.55814305637555 2.1641608954746907 0 0 0
650 1 6.6998281172165886 25.12245005134801 2.1641117408598 0 0 0
651 1 8.91959538468308 23.558205523552434 2.164032344277138 0 0 0
663 1 11.139291734380356 25.122593154789126 2.163914266710388 0 0 0
664 1 13.359044814008636 23.558321720628904 2.1636922689096654 0 0 0
680 1 15.578627944331863 25.12284738568605 2.16341507637848 0 0 0
681 1 17.79836113529824 23.558587984282635 2.1630495335265265 0 0 0
701 1 20.01710561952435 25.124083154350387 2.1619793269399863 0 0 0
702 1 22.23630808304877 23.560690308992232 2.1596118142505496 0 0 0
723 1 24.457675488859007 25.12790403568471 2.1567171141154278 0 0 0
1351 1 8.91946120769566 7.915330380941698 2.1641346965407355 0 0 0
1350 1 6.699701213508734 9.479669187202784 2.16414253225327 0 0 0
781 1 2.2603265535447274 21.99385580634572 2.1642064619989565 0 0 0
782 1 4.4801053717361725 20.42959016581478 2.164160180882666 0 0 0
790 1 6.699855754192294 21.99388798957827 2.1641094921586514 0 0 0
791 1 8.919590325666375 20.429591559929257 2.1640356895458965 0 0 0
1797 1 24.459997838803858 0.0946321387446174 2.1636976817680558 0 0 0
803 1 11.13934739057346 21.993925808179448 2.163891747705594 0 0 0
804 1 13.35907040169864 20.42958786780713 2.1637122061320704 0 0 0
820 1 15.578784351517156 21.993979602838195 2.1634980118320684 0 0 0
821 1 17.79858210092871 20.429586787498515 2.163269364161473 0 0 0
841 1 20.01840600636293 21.994156548496775 2.1624730983739333 0 0 0
842 1 22.239734316585558 20.42958707693775 2.161965714102692 0 0 0
863 1 24.4583146838197 21.997828077524193 2.1577715861706914 0 0 0
1342 1 4.479893809165219 7.915444931248401 2.1641673817012648 0 0 0
1341 1 2.260141312426892 9.479696161256504 2.1641929402407367 0 0 0
921 1 2.2603267923968686 18.865314877732505 2.164206385424071 0 0 0
1786 1 20.019433722369392 0.09457346713790571 2.1638817162881017 0 0 0
922 1 4.48007607357235 17.301036032362383 2.1641604662345735 0 0 0
930 1 6.699853778057604 18.865297233765695 2.1641093249069026 0 0 0
931 1 8.91959161862499 17.300978726696815 2.1640329595323466 0 0 0
943 1 11.139346028911024 18.86525373260416 2.163891474027952 0 0 0
944 1 13.35904415043854 17.300853014833713 2.163691086705348 0 0 0
960 1 15.578782065743585 18.865192812523492 2.163495898860334 0 0 0
961 1 17.798360763155692 17.30058458241567 2.163046975528978 0 0 0
981 1 20.018407261834177 18.865014318736097 2.1624716862396953 0 0 0
982 1 22.236312077954814 17.298483670995154 2.1596141673870557 0 0 0
1776 1 15.57918610348534 0.09445657569282725 2.1641186440482434 0 0 0
1003 1 24.458317724959972 18.86134582568309 2.1577728830482426 0 0 0
1283 1 24.45874153553716 12.604689180511345 2.160617756923222 0 0 0
1262 1 22.238590693483697 11.041773768095783 2.1625904859855147 0 0 0
1061 1 2.2602881654185225 15.736770213315072 2.1641990318867714 0 0 0
1062 1 4.48001777261346 14.172488509868902 2.164162673165106 0 0 0
1070 1 6.699824496789523 15.736733220998417 2.164112040286241 0 0 0
1071 1 8.919544230790027 14.172367014753819 2.164051229489996 0 0 0
1768 1 11.13930423265967 0.09433596812652922 2.16420454623517 0 0 0
1083 1 11.139286373335166 15.736587687992722 2.163914026096781 0 0 0
1084 1 13.358951646316598 14.172119091800713 2.16370342320346 0 0 0
1100 1 15.578627000430403 15.736327048703867 2.163412220313518 0 0 0
1101 1 17.797958650295698 14.171385613022247 2.1630426320132914 0 0 0
1121 1 20.017107657171753 15.735090175357751 2.1619800502570565 0 0 0
1762 1 6.699652901769661 0.09426842233556698 2.1641820850143456 0 0 0
1122 1 22.237649995792328 14.169631070851352 2.1611316232363387 0 0 0
1143 1 24.457679816157757 15.73127216448274 2.156719854894649 0 0 0
1261 1 20.018034076030236 12.606462818046696 2.1627734883289986 0 0 0
1758 1 2.2600546893789186 0.09426259297982398 2.1641860504194113 0 0 0
1241 1 17.798462801655223 11.042797651241205 2.1633870354937823 0 0 0
1201 1 2.2602156012579377 12.60822335326753 2.1641950872195634 0 0 0
1202 1 4.479948883447505 11.043956552579385 2.1641625807720053 0 0 0
1210 1 6.699757756936201 12.608183225938227 2.1641197247986517 0 0 0
1211 1 8.91950174208617 11.043826657407191 2.16408995820196 0 0 0
1223 1 11.139259335628859 12.607949842677067 2.1639592488775943 0 0 0
7 1 0.04029730067280468 34.50798486840478 0.005190660954754726 0 0 0
3847 1 26.6795408077523 12.602454061066128 -3.1068424025989486e-05 0 0 0
3772 1 26.679544467147327 28.25672170781285 -3.501714433952592e-05 0 0 0
917 1 0.04054229781471719 17.30103950762752 2.164240455785985 0 0 0
1004 1 26.67954944818847 17.283443244194313 2.1362141848936274 0 0 0
777 1 0.04056003882755732 20.429581775853368 2.164241015159876 0 0 0
724 1 26.67954951189663 23.575733150527974 2.136215976892231 0 0 0
637 1 0.04054240952404342 23.558124258627686 2.1642407370283685 0 0 0
19 1 0.04037277410878204 31.379481759719255 0.005197925562362634 0 0 0
497 1 0.04049355864040649 26.68666811574945 2.164234002900505 0 0 0
1337 1 0.0403254144459666 7.915433950485215 2.164221572063007 0 0 0
357 1 0.0404103990722362 29.815212279799674 2.164225604979556 0 0 0
31 1 0.04045927902430435 28.250945472923167 0.005207219527503471 0 0 0
43 1 0.04052695432928033 25.12239328166345 0.005217134173238516 0 0 0
1477 1 0.04025889811565264 4.78695058819658 2.164217583239428 0 0 0
217 1 0.040325165831959 32.94373451860411 2.164221835406296 0 0 0
55 1 0.04056020763148638 21.993851531053473 0.005220503064947624 0 0 0
145 1 0.04025886320956573 36.07221975448836 2.1642177102787303 0 0 0
67 1 0.04056031240452285 18.865312470062893 0.005220280209771973 0 0 0
1057 1 0.040494065313851024 14.172496632604812 2.164233527706977 0 0 0
3832 1 26.67930923484148 15.727111095279975 -0.01204512938329756 0 0 0
79 1 0.04052736135991353 15.736771079404475 0.005216504777690224 0 0 0
3787 1 26.679312200524762 25.132061802054267 -0.01204534472655158 0 0 0
1197 1 0.04041054550751255 11.04395436721359 2.164225339962267 0 0 0
91 1 0.040459270949938286 12.608220187536078 0.005206438782063144 0 0 0
103 1 0.04037250342020826 9.47968583460557 0.005197124945562327 0 0 0
115 1 0.04029728045782832 6.35118474834711 0.005190214192398503 0 0 0
1617 1 0.04024017349578912 1.6584929375630062 2.164216493531617 0 0 0
139 1 0.04025311081450411 0.09426826052380934 0.005186279786790857 0 0 0
127 1 0.04025309819836309 3.222717882539385 0.0051860939882013915 0 0 0
1598 1 15.579555335345766 6.351234295950369 24.450844400441532 0 0 0
1596 1 24.45983494563473 6.350929647691425 11.077266883055456 0 0 0
147 1 2.260023409072378 36.072205857703736 4.390847345056514 0 0 0
1595 1 24.45985001012626 4.786831232164647 13.306240670046526 0 0 0
1594 1 22.239726134925345 6.350989503864725 13.306296929371552 0 0 0
150 1 2.259879344206282 36.07219480268673 8.848736772863491 0 0 0
151 1 4.479815597267337 36.072194857402216 6.6197840269248625 0 0 0
152 1 6.699665724754489 36.07221757727002 4.39083066054741 0 0 0
1593 1 22.239742386351505 4.786862975569375 15.535231857247314 0 0 0
1592 1 20.019662708499077 6.351069948080219 15.535291560840522 0 0 0
155 1 2.2597522258226914 36.07217705831033 13.306542023589968 0 0 0
156 1 4.479731997671428 36.07218086371773 11.07762520491729 0 0 0
157 1 6.699661143077984 36.07219196975736 8.848698209283732 0 0 0
158 1 8.919543088063374 36.07222640539425 6.619771745644995 0 0 0
159 1 11.139386057609737 36.07231385644559 4.3908299806264255 0 0 0
1591 1 20.019655626949913 4.786891180509407 17.76418281595284 0 0 0
1590 1 17.799607520403907 6.351139840050885 17.76420561215605 0 0 0
162 1 2.259679141104596 36.0721693502102 17.76427710582631 0 0 0
163 1 4.4796770193018 36.07216906490791 15.535389963000615 0 0 0
164 1 6.699656432720793 36.072171912703354 13.306490263715926 0 0 0
165 1 8.919588991862046 36.07219298824204 11.077579040711688 0 0 0
166 1 11.139508082750032 36.0722475705159 8.848671307775433 0 0 0
167 1 13.35941996953979 36.07233876653933 6.61973729436652 0 0 0
168 1 15.57929326651665 36.072510611933154 4.3907287267811395 0 0 0
1589 1 17.79959646208079 4.786952719611554 19.993077555526067 0 0 0
1588 1 15.57957252951306 6.351217064773729 19.993082105374135 0 0 0
171 1 2.259635922958526 36.07216487270109 22.2219967628331 0 0 0
172 1 4.47963572113284 36.07216791116673 19.993121198603106 0 0 0
173 1 6.699626197893731 36.072166946955825 17.764240744430875 0 0 0
174 1 8.919613686616422 36.072168899848315 15.535346905574139 0 0 0
175 1 11.139571329398914 36.072210517903386 13.306444890739053 0 0 0
176 1 13.35954563478947 36.07225874371687 11.077538892061227 0 0 0
177 1 15.579508538653949 36.072348353964536 8.848584775895862 0 0 0
178 1 17.79948797694105 36.07249462266571 6.6195688622205795 0 0 0
179 1 20.019492494396594 36.07271523476054 4.390504454444285 0 0 0
1587 1 15.579565513833392 4.786984475739586 22.221956187852122 0 0 0
181 1 4.479615786252021 36.072164874138664 24.450847830870554 0 0 0
182 1 6.69960879611716 36.07216940717004 22.221976066585484 0 0 0
183 1 8.919595381194657 36.072168544179725 19.993098298721566 0 0 0
184 1 11.139589127405346 36.07217043986388 17.764206310949085 0 0 0
185 1 13.359576687069321 36.072225155680066 15.535314081623271 0 0 0
186 1 15.579579961077682 36.07226370769256 13.306394520803355 0 0 0
187 1 17.799609854916035 36.072352966386696 11.077437958183465 0 0 0
188 1 20.019667826053556 36.07245065502484 8.848452950431286 0 0 0
189 1 22.23976516814578 36.07260141525584 6.619405454840284 0 0 0
190 1 24.459957066434555 36.07276332117949 4.390322164083153 0 0 0
1586 1 13.35956392934543 6.351240823394543 22.22195515005019 0 0 0
192 1 8.919591274285091 36.07217039240419 24.450840232392128 0 0 0
193 1 11.13957684970956 36.072172432430634 22.221964778607244 0 0 0
194 1 13.359574392423605 36.07217981075958 19.993074738791524 0 0 0
195 1 15.579589497289065 36.07221993601663 17.764187492995735 0 0 0
196 1 17.79961663748657 36.07228060271232 15.535276471360389 0 0 0
197 1 20.019686115091318 36.072333285839484 13.306343165705165 0 0 0
198 1 22.239781375118262 36.07240541911669 11.077336376988983 0 0 0
199 1 24.459925795370747 36.072459716309126 8.848307390977768 0 0 0
1585 1 13.359565575345604 4.786993509867963 24.45083971997666 0 0 0
201 1 13.359565075462116 36.07217551668616 24.450839788141273 0 0 0
202 1 15.579564162114405 36.07218615229128 22.221955658981273 0 0 0
203 1 17.799595367263176 36.07221906658266 19.993076096337767 0 0 0
204 1 20.01965501803015 36.07228336134246 17.764180836607284 0 0 0
205 1 22.2397430724601 36.07231354273432 15.53522931335241 0 0 0
206 1 24.459852900799 36.07234747003231 13.306238038392813 0 0 0
1584 1 11.139574417880475 6.3512495642663955 24.45083734381678 0 0 0
208 1 17.79956193408586 36.0721898644274 24.450850246818987 0 0 0
209 1 20.019598253734912 36.07221986615748 22.221970702726708 0 0 0
210 1 22.239677868727544 36.072252017999695 19.993070417891584 0 0 0
211 1 24.459778491132305 36.07230503300251 17.76413756242788 0 0 0
1599 1 17.799562979266362 4.786979637956732 24.450850570193165 0 0 0
213 1 22.23960137197004 36.07221016801267 24.450863787520124 0 0 0
214 1 24.45967920647597 36.072234305441526 22.22196824158477 0 0 0
1600 1 17.799570732898612 6.351206325875251 22.221978744760342 0 0 0
1581 1 24.45987401839345 6.350628310073084 6.619227493145382 0 0 0
1580 1 24.459921909427027 4.7867210434873675 8.848306863346197 0 0 0
1579 1 22.239712145250337 6.350796029610646 8.848345627599887 0 0 0
1578 1 22.239777664136785 4.786774500173891 11.077337752140235 0 0 0
220 1 2.2600663941551664 32.943716331024156 4.39084805833498 0 0 0
1577 1 20.01963933493846 6.3509314583005825 11.077400860604337 0 0 0
1576 1 20.019684827629256 4.786845971756804 13.306345313699712 0 0 0
1575 1 17.799614313673516 6.35106331796671 13.306383688726687 0 0 0
1574 1 17.799617064173376 4.786895651269544 15.535279216498461 0 0 0
225 1 2.2599100277887936 32.943700003918075 8.848730140952073 0 0 0
226 1 2.259968268201258 34.50795902188049 6.619800754323729 0 0 0
227 1 4.479840224748437 32.94370360940656 6.619774031821436 0 0 0
228 1 4.479858466768127 34.507960892144425 4.390829349578765 0 0 0
229 1 6.699694262185777 32.9437374334974 4.390806748882094 0 0 0
1573 1 15.579582579452735 6.351147889131179 15.535298257868869 0 0 0
1572 1 15.579590176179359 4.786952830428205 17.76418972297385 0 0 0
1571 1 13.359577866651804 6.351221479519507 17.764197994974168 0 0 0
1570 1 13.359575471574349 4.786991388655351 19.99307549269317 0 0 0
234 1 2.2597676997102742 32.943672965731835 13.306531493604881 0 0 0
235 1 2.259820155580561 34.50793698756354 11.077647105737118 0 0 0
236 1 4.4797547613199225 32.943676323587134 11.077609346729504 0 0 0
237 1 4.479783693925601 34.50793999903872 8.84870745494029 0 0 0
238 1 6.699683012385488 32.94369264815784 8.848675097262076 0 0 0
239 1 6.699685660130799 34.50795570455994 6.6197647239529385 0 0 0
240 1 8.919557692142245 32.94376815987148 6.619731816542077 0 0 0
241 1 8.919516952667934 34.50803051438464 4.39081274337348 0 0 0
242 1 11.13937175488506 32.943927368769856 4.3907584189828315 0 0 0
1569 1 11.13957993681027 6.351252666467101 19.993079577597108 0 0 0
1568 1 11.139577445171751 4.786997347555533 22.22196485507484 0 0 0
1567 1 8.919590836372358 6.351251936256693 22.221966768643497 0 0 0
1566 1 8.919591537976302 4.786997746974714 24.450839909050647 0 0 0
247 1 2.2596805114166547 32.94365929974555 17.764273801485018 0 0 0
248 1 2.2597125690100626 34.50791876132633 15.535410687248369 0 0 0
249 1 4.479684514067114 32.94365967430513 15.535379254206772 0 0 0
250 1 4.4797100701630885 34.50792019043006 13.306509308659859 0 0 0
251 1 6.699659951253199 32.94366427189813 13.306471611573935 0 0 0
252 1 6.699658939438195 34.50793178402908 11.077591214609102 0 0 0
253 1 8.919591940470763 32.94371001407263 11.077554533199027 0 0 0
254 1 8.919576713004627 34.50797032141491 8.848669674775355 0 0 0
255 1 11.139518235281805 32.94380725356953 8.848625059419394 0 0 0
256 1 11.13945296529754 34.50807742930784 6.619737969313852 0 0 0
257 1 13.359358155169168 32.9439964971275 6.619652190618058 0 0 0
258 1 13.359268322581206 34.508267758006916 4.390755716695379 0 0 0
259 1 15.579106438345931 32.94429884700158 4.390559702265461 0 0 0
1565 1 6.699602452325148 6.3512557117562505 24.450842190149316 0 0 0
1718 1 22.239825588386903 1.6584973769396794 11.07734301144629 0 0 0
1719 1 22.23982566854733 3.222601056552993 8.848395021784095 0 0 0
1562 1 24.459948040134872 4.786412573843104 4.39031827632698 0 0 0
264 1 2.2596339973201034 32.943651953738346 22.221997822295986 0 0 0
265 1 2.259653995369904 34.5079115638243 19.993137138015335 0 0 0
266 1 4.479634657885397 32.94365620268535 19.993118238228725 0 0 0
267 1 4.4796539807039855 34.50791337977463 17.764254030828315 0 0 0
268 1 6.699629798759954 32.943656593147644 17.76422694916833 0 0 0
269 1 6.699646167193079 34.50791141485359 15.535360545379532 0 0 0
270 1 8.919610891380968 32.94366350635428 15.535327816925394 0 0 0
271 1 8.91960603078198 34.507932852869594 13.306456892262885 0 0 0
272 1 11.139564667723077 32.94373762257551 13.306429865923254 0 0 0
273 1 11.139544634541842 34.50799864612373 11.077550252278277 0 0 0
274 1 13.359513222495126 32.94384582508487 11.077504377965699 0 0 0
275 1 13.359469175817424 34.508112882959985 8.848618076469753 0 0 0
276 1 15.579420419388475 32.94402842019789 8.84852816817513 0 0 0
277 1 15.579378007721123 34.508280524290306 6.6196196933446805 0 0 0
278 1 17.799284692267545 32.944328344015155 6.619468487201731 0 0 0
279 1 17.799238585095857 34.50858152588002 4.390526111908102 0 0 0
280 1 20.0191652678597 32.94473095385701 4.390307673671314 0 0 0
1561 1 22.23955675013068 6.350365188718673 4.390288361692663 0 0 0
1560 1 22.239758399713295 4.786576272514778 6.61940467829638 0 0 0