LAMMPS data file via write_data, version 2 Aug 2023, timestep = 1498, units = metal

7201 atoms
3 atom types

0.039470549900052054 53.3197292256795 xlo xhi
0.09437550604689691 37.636276493953304 ylo yhi
-22.327216518557794 75.68641629413722 zlo zhi

Masses

1 183.84
2 1.008
3 4.0026

Atoms # atomic

1 1 2.259380277853901 36.072172350244294 0.005715530913429571 0 0 0
2 1 6.699046963712956 36.07227657788878 0.005560500340283959 0 0 0
3 1 11.138819977030563 36.07234230760184 0.0052563623679671165 0 0 0
4 1 15.578771750204174 36.07248928999594 0.004975746557017145 0 0 0
5 1 20.018927294324868 36.07259565323297 0.004789421373503624 0 0 0
6 1 24.45928230001555 36.072534047894536 0.004683386169168786 0 0 0
1703 1 24.459423759587327 3.2227762358714616 2.1637712090476735 0 0 0
8 1 2.2593595129372086 32.943798675078604 0.005653200001334545 0 0 0
9 1 4.479191804576955 34.50805276811944 0.005639712847916376 0 0 0
10 1 6.698967452134491 32.94391559259614 0.005452039834581526 0 0 0
11 1 8.918850471514236 34.50814980127517 0.005372416656731656 0 0 0
12 1 11.138661238861324 32.944071152081705 0.005175442723957222 0 0 0
13 1 13.358673385275273 34.50831180938594 0.005070717646317459 0 0 0
14 1 15.57851004829715 32.94430792458009 0.00488477577136165 0 0 0
15 1 17.79869323326192 34.50850005353922 0.00481130971348674 0 0 0
16 1 20.01860507520367 32.944569758617114 0.004512979564213981 0 0 0
17 1 22.238950826794532 34.508598507767374 0.004567811926621151 0 0 0
18 1 24.459101574424356 32.94463603008326 0.004245377065252451 0 0 0
1682 1 22.239282201431795 1.6586944980420835 2.1638632114242005 0 0 0
20 1 2.259340388740412 29.8153658646891 0.005563675860216657 0 0 0
21 1 4.4791130910890855 31.37965488701952 0.0055095563960158075 0 0 0
22 1 6.698825225684673 29.81547893441327 0.005278136607904672 0 0 0
23 1 8.918706146073738 31.379785987995444 0.005236332686045504 0 0 0
24 1 11.138417985906562 29.815731642497333 0.005002431225586048 0 0 0
25 1 13.358418459676425 31.380051122583257 0.004948877345994528 0 0 0
26 1 15.578069162144581 29.816114917605116 0.0046278619051895705 0 0 0
27 1 17.798293208111343 31.380420404405346 0.004548243730150162 0 0 0
28 1 20.018006219595776 29.81659402135843 0.0038367290552686457 0 0 0
29 1 22.238574493675667 31.38072237962212 0.003965774836180844 0 0 0
30 1 24.45874231578154 29.81697208863573 0.0031273421922603764 0 0 0
1681 1 20.019176722666998 3.22284286262517 2.16390824045134 0 0 0
32 1 2.2593076844720876 26.686829686614317 0.00548564673312591 0 0 0
33 1 4.479042777070552 28.251143573270994 0.005379218819160732 0 0 0
34 1 6.698715927022275 26.686918186743267 0.005117434556588872 0 0 0
35 1 8.918525353139335 28.251328787675615 0.005032738687917005 0 0 0
36 1 11.138166755107132 26.687225053423834 0.004780825127365635 0 0 0
37 1 13.35804061587398 28.25170048624788 0.0047163396119474415 0 0 0
38 1 15.577485399496796 26.687724366632086 0.004131260493798192 0 0 0
39 1 17.79762222947267 28.252249279357287 0.003919819024601065 0 0 0
40 1 20.017076433139408 26.68844034216374 0.002666744397962765 0 0 0
41 1 22.23779694593995 28.252900971173506 0.0026872028690140327 0 0 0
42 1 24.45792342060952 26.689485741697236 0.0005990525684672104 0 0 0
1661 1 17.799057574228907 1.6587302390958258 2.1640021170263037 0 0 0
44 1 2.2592983548219387 23.558223729688514 0.005446323161842981 0 0 0
45 1 4.478985693506463 25.122549105972492 0.005291477834492498 0 0 0
46 1 6.69866671748518 23.558270275902057 0.005015297229795588 0 0 0
47 1 8.91839186595434 25.122722815807222 0.004855118322568484 0 0 0
48 1 11.13800481688192 23.558525347609105 0.004606460011274227 0 0 0
49 1 13.357667491148066 25.12310747063837 0.004395193793268416 0 0 0
50 1 15.57699211103981 23.55890010860274 0.0036124619312857455 0 0 0
51 1 17.796747013736123 25.123746545501504 0.0030238013298819824 0 0 0
52 1 20.015903875155416 23.559679174905437 0.0011104980229925789 0 0 0
53 1 22.23654302691214 25.124776605191183 0.00036508550515877 0 0 0
54 1 24.456633813200575 23.561147878015337 -0.0041047439159800645 0 0 0
1660 1 15.57901271588152 3.222852073731675 2.164085473903657 0 0 0
56 1 2.2592988249783152 20.429590085515294 0.005435908528677067 0 0 0
57 1 4.4789572750882005 21.99389826209365 0.005253949241586979 0 0 0
58 1 6.6986684969140455 20.42958575556393 0.004993916425038006 0 0 0
59 1 8.918348095961711 21.99401291431138 0.004774344482566733 0 0 0
60 1 11.137993438448705 20.429701461167042 0.004560465712444125 0 0 0
61 1 13.357491469779212 21.994225993792273 0.0041914333588480325 0 0 0
62 1 15.576919244244499 20.429738880802827 0.0034648291154064296 0 0 0
63 1 17.796181387291526 21.99453152101388 0.002306235505033952 0 0 0
64 1 20.01547859944582 20.429792536667566 0.0004076882982566738 0 0 0
65 1 22.235281084461292 21.995259196998575 -0.002115837864028967 0 0 0
66 1 24.45626350199405 20.429935074164437 -0.0043602127899413454 0 0 0
1644 1 13.358996595457516 1.6587469925620855 2.1641568532642506 0 0 0
68 1 2.2593030509666265 17.300960459605946 0.005444894318677278 0 0 0
69 1 4.4789673911116195 18.865246275242715 0.005255830890004579 0 0 0
70 1 6.698725319411867 17.300926305770844 0.0050257012602997805 0 0 0
71 1 8.918401776738778 18.86526945893274 0.004787815797726494 0 0 0
72 1 11.138123375578719 17.30088849833481 0.004649781427886008 0 0 0
73 1 13.357571121572825 18.865262874808618 0.004230630261626559 0 0 0
74 1 15.577231179937952 17.30064965857063 0.0037491085649100898 0 0 0
75 1 17.796454314499933 18.86500607400527 0.0025404434506038766 0 0 0
76 1 20.016556917783916 17.300198605784257 0.0018846055801106925 0 0 0
77 1 22.235766668654616 18.86468324424182 -0.0012736881488576472 0 0 0
78 1 24.4568313568626 17.299363468418775 -0.002840044252356317 0 0 0
1643 1 11.139040338291188 3.222887143989861 2.164274461993649 0 0 0
80 1 2.259312280343946 14.172359802931867 0.005472020865134655 0 0 0
81 1 4.479010649274233 15.736628266694758 0.005291471982937313 0 0 0
82 1 6.698809024070442 14.172328611214045 0.005105977779001964 0 0 0
83 1 8.918520245660302 15.736591684919686 0.004882680149294066 0 0 0
84 1 11.138365645519 14.172217823031193 0.004817903164188517 0 0 0
85 1 13.357880192167643 15.736415309668702 0.004463007702157903 0 0 0
86 1 15.57782940942085 14.171921487086948 0.0042668194591341125 0 0 0
87 1 17.79725326403787 15.736008428732122 0.0033812405826323688 0 0 0
88 1 20.017557128995417 14.171459577257721 0.00322695116211561 0 0 0
89 1 22.237071469689717 15.735486404970331 0.0015347570813379972 0 0 0
90 1 24.457790439060453 14.170708430509881 0.0013618545319439726 0 0 0
1631 1 8.919105680026348 1.6587215114532918 2.1644400600892766 0 0 0
92 1 2.2593478323038902 11.043812020446067 0.005531034752485692 0 0 0
93 1 4.479067570289076 12.608075413024087 0.005361827319131604 0 0 0
94 1 6.698898068254458 11.043817044422886 0.005218374457980997 0 0 0
95 1 8.918681280015653 12.608028037674563 0.00500180436194379 0 0 0
96 1 11.13861490756522 11.043708389464793 0.004997884028576179 0 0 0
97 1 13.358304290583202 12.60780995321734 0.0047742804751607125 0 0 0
98 1 15.578363369350303 11.043453537887881 0.004736452088436448 0 0 0
99 1 17.797991068747397 12.607477634415606 0.004163826378655446 0 0 0
100 1 20.01827179256878 11.04314139359597 0.00415452341318433 0 0 0
101 1 22.238013315154912 12.607022340572977 0.00325075284054042 0 0 0
102 1 24.458532468285316 11.042635813646228 0.0033430398898759363 0 0 0
1630 1 6.69919633429939 3.2228796716811123 2.1645578793410407 0 0 0
104 1 2.2593795646668666 7.915341544997777 0.005602466169137607 0 0 0
105 1 4.479114197441735 9.479588497017607 0.005451115939640588 0 0 0
106 1 6.698999846250124 7.91539271754766 0.00535837916230875 0 0 0
107 1 8.918832607913862 9.479576270802365 0.005149564102509217 0 0 0
108 1 11.138796428075647 7.915326942798179 0.005143558039055423 0 0 0
109 1 13.358639263346246 9.479405271084506 0.005013169035219035 0 0 0
110 1 15.57869541846198 7.915154695911716 0.004991737056068536 0 0 0
111 1 17.79850667292526 9.479171835655755 0.00470281602117008 0 0 0
112 1 20.01871403674155 7.914976077319591 0.0046812121316705 0 0 0
113 1 22.238636538536763 9.478872867272583 0.004215333318941114 0 0 0
114 1 24.458998924580516 7.914682533354016 0.004285678171933299 0 0 0
1622 1 4.479306003102865 1.6586491773037615 2.164698022958769 0 0 0
116 1 2.2593814059542474 4.786942082087317 0.005672559804079264 0 0 0
117 1 4.479192087334966 6.351154958938827 0.005551116195586857 0 0 0
118 1 6.699064609274111 4.7870185871808095 0.005492013286458887 0 0 0
119 1 8.918919160557879 6.35119850287776 0.005303979319792309 0 0 0
120 1 11.138887458106494 4.787025195433384 0.005229827220727733 0 0 0
121 1 13.358803194793756 6.351126947308033 0.005110828119478199 0 0 0
122 1 15.578870678571414 4.786945620843699 0.0050625986744939734 0 0 0
123 1 17.798821348565998 6.350980781907812 0.004938331443552132 0 0 0
124 1 20.018987625050872 4.786850680496745 0.0048679050011087655 0 0 0
125 1 22.238977120919245 6.350827035078572 0.004683049729995242 0 0 0
126 1 24.459260393587456 4.786709419463864 0.00468295483338358 0 0 0
1621 1 2.259423958845117 3.222793921980324 2.16472982831926 0 0 0
128 1 2.2594054071956853 1.658592964909862 0.005720729006753613 0 0 0
129 1 4.479237018728546 3.222796925383714 0.005647084365376165 0 0 0
130 1 6.699097035240683 1.6586807917446305 0.005572789214337938 0 0 0
131 1 8.91896809647213 3.2228886056870776 0.005401859516272522 0 0 0
132 1 11.138869899949293 1.6587233684315583 0.005268810004089829 0 0 0
133 1 13.358849689022637 3.2228774227657646 0.005129347365588394 0 0 0
134 1 15.578848943436865 1.6587717618566111 0.005026419248270016 0 0 0
135 1 17.79893368392978 3.2228168109495 0.004996191806303183 0 0 0
136 1 20.019036685482092 1.6587619888593863 0.00491456429779473 0 0 0
137 1 22.239164401092484 3.2227474316482185 0.004836803157270969 0 0 0
138 1 24.459344698690437 1.6586541968196942 0.004825059403111338 0 0 0
1563 1 24.45936383338609 6.351017850216492 2.163546644803721 0 0 0
140 1 4.4792302763387815 0.09447128837243213 0.005688432236151712 0 0 0
141 1 8.91895597625432 0.09455364146039358 0.005417280155719426 0 0 0
142 1 13.35882702055771 0.09463172607082271 0.005139584537727112 0 0 0
143 1 17.798893517526817 0.09472097146647701 0.004912273263936492 0 0 0
144 1 22.23916187755635 0.0946903495529341 0.004824269265247854 0 0 0
1542 1 22.239260598415242 4.786927414918007 2.1637859262796257 0 0 0
1541 1 20.019075450408 6.351083956984584 2.163802798006971 0 0 0
1521 1 17.79906226495303 4.786953854855124 2.1639756133859027 0 0 0
1520 1 15.578934651608511 6.351105258086414 2.1640466565213803 0 0 0
1240 1 15.57838599358496 12.607881028873278 2.1635178862107427 0 0 0
1504 1 13.35898570292719 4.787017720538162 2.1641501030515653 0 0 0
3907 1 26.679520283662626 0.09453605556967659 0.0047805833321231716 0 0 0
1503 1 11.138972354854593 6.3512230531673985 2.1642134903006323 0 0 0
1491 1 8.919095446300133 4.787077589176808 2.164374716108967 0 0 0
1490 1 6.699159610820602 6.351256172559693 2.1644511908486628 0 0 0
3877 1 26.679402493336706 6.350534908161118 0.004403240393874955 0 0 0
3892 1 26.679497168242424 3.222581501673987 0.004722308718109905 0 0 0
1482 1 4.479297548153981 4.787018765203972 2.1646257397695234 0 0 0
148 1 4.479297195217001 36.072188968738544 2.1646965334843093 0 0 0
153 1 8.919071311960261 36.07225956146058 2.164426636910748 0 0 0
160 1 13.358940383734556 36.072369893145094 2.1641413449931255 0 0 0
169 1 17.798974505487454 36.0724293200651 2.163901426620634 0 0 0
180 1 22.239179713842912 36.07242036639696 2.1637296681780054 0 0 0
1481 1 2.2594224698360295 6.351181208385866 2.1646596275797805 0 0 0
1423 1 24.459219507271747 9.479322734831934 2.162907580037358 0 0 0
221 1 2.259399243522241 34.50795702880385 2.1647122653858806 0 0 0
222 1 4.479242410201488 32.94379817602726 2.1645983769441286 0 0 0
230 1 6.699140531136991 34.50803165320912 2.1645458858227484 0 0 0
231 1 8.918939238940007 32.94387854680826 2.1643436728710386 0 0 0
243 1 11.138915446043384 34.50814719961522 2.164255877629217 0 0 0
244 1 13.358757265554397 32.944079454917265 2.1640601077499944 0 0 0
260 1 15.578842462197098 34.508282447803964 2.163965777087216 0 0 0
261 1 17.79876878717483 32.9442449124692 2.163743932966364 0 0 0
281 1 20.018978717224016 34.50836774442858 2.1636958234711092 0 0 0
282 1 22.239028197862403 32.944258966756706 2.1633679953913902 0 0 0
303 1 24.459281655853864 34.5082901197843 2.163534643659907 0 0 0
1402 1 22.239110801698015 7.915180669429012 2.163488615005853 0 0 0
1401 1 20.0188542582245 9.479370662407351 2.163477555837274 0 0 0
361 1 2.259384103846674 31.37954115117173 2.164623034628157 0 0 0
362 1 4.479186031607009 29.81533162162628 2.1644673158414287 0 0 0
370 1 6.699029000510551 31.37960648565844 2.164398685601177 0 0 0
371 1 8.91877764857503 29.815452261242182 2.1641740554829823 0 0 0
383 1 11.138720314654343 31.37979673793105 2.1641301315081107 0 0 0
384 1 13.358456006755059 29.81573540338756 2.163880603259983 0 0 0
400 1 15.57859444766829 31.38003395462408 2.1638130801804114 0 0 0
401 1 17.798382827382873 29.81600442131944 2.1633062286545726 0 0 0
421 1 20.018713795992703 31.380191099985026 2.1632563063266588 0 0 0
422 1 22.238684213218843 29.816140707849705 2.162503124627347 0 0 0
443 1 24.459143013371808 31.3801663752024 2.162849235129997 0 0 0
1381 1 17.798887729678277 7.9152338107586475 2.1638480693470328 0 0 0
1380 1 15.578744944423576 9.47945260144602 2.1638972447931097 0 0 0
501 1 2.2593730557951357 28.25105905536381 2.164525288706684 0 0 0
502 1 4.479131584932795 26.686794724141496 2.16434841922306 0 0 0
510 1 6.698924166349851 28.25111127596396 2.1642232727463826 0 0 0
511 1 8.918621597420987 26.686932674138784 2.1639631756896827 0 0 0
523 1 11.138469110208002 28.251353677733142 2.1639347616693883 0 0 0
524 1 13.35809971485374 26.687266254021566 2.1635736729893384 0 0 0
540 1 15.578154465960626 28.25167818089678 2.163433250149941 0 0 0
541 1 17.797739572986615 26.68764205427584 2.16253957778225 0 0 0
561 1 20.018158111496145 28.251981624810284 2.1623763275297954 0 0 0
562 1 22.237932885368984 26.688051523538185 2.1606978569769426 0 0 0
583 1 24.458747088827867 28.252204826636884 2.161183945412278 0 0 0
1364 1 13.358844707007641 7.915340538711472 2.1640869290492 0 0 0
1363 1 11.138824587103503 9.479610320419786 2.1640837464445775 0 0 0
641 1 2.259357990183305 25.122498702149734 2.164471862874692 0 0 0
642 1 4.479101172595792 23.558200607035005 2.1642760064810727 0 0 0
650 1 6.6988535769304 25.122542075688923 2.164089774133309 0 0 0
651 1 8.918537070292066 23.558315264741022 2.1638412989602056 0 0 0
663 1 11.138275424090404 25.122777534813235 2.1637096564110077 0 0 0
664 1 13.357880445118058 23.558573792971927 2.1632909208087994 0 0 0
680 1 15.577610047065377 25.12311792855667 2.162888898274299 0 0 0
681 1 17.796952132571704 23.55895507258509 2.1616201106610538 0 0 0
701 1 20.01717499406438 25.123643706970313 2.1609118421370637 0 0 0
702 1 22.236485997103028 23.55974530403545 2.157873511756271 0 0 0
723 1 24.457913160736158 25.124398408001653 2.157601375157402 0 0 0
1351 1 8.919016075471136 7.9154527650190785 2.164255833666662 0 0 0
1350 1 6.699086998501533 9.479668283526001 2.1643031534783517 0 0 0
781 1 2.259354012445351 21.993896576240832 2.1644399924082505 0 0 0
782 1 4.479102204905494 20.42957654758629 2.1642671582496558 0 0 0
790 1 6.698824539795049 21.993919407128754 2.1640219861824286 0 0 0
791 1 8.91853315745313 20.42964959655742 2.1638004014587895 0 0 0
1797 1 24.459369242838864 0.09456653280055982 2.163791144635315 0 0 0
803 1 11.138208103156908 21.99408025700691 2.1635766396217213 0 0 0
804 1 13.357854523730277 20.42975266284814 2.163195856718586 0 0 0
820 1 15.577406588469152 21.99425279730419 2.1625346549694364 0 0 0
821 1 17.796909505857617 20.429821908309254 2.1613690719687693 0 0 0
841 1 20.016113150912954 21.99471825386491 2.159454064060505 0 0 0
842 1 22.235113017930956 20.430071182848103 2.156159147816254 0 0 0
863 1 24.455576317959533 21.99655822652603 2.152181260017979 0 0 0
1342 1 4.479255434590388 7.91542822277847 2.164521308335397 0 0 0
1341 1 2.2593987399381854 9.479620181827599 2.164579852821127 0 0 0
921 1 2.2593561969070417 18.865279321893706 2.164437030735444 0 0 0
1786 1 20.01912562979545 0.09463927869455802 2.1639002384659176 0 0 0
922 1 4.479123474656524 17.300958585331983 2.1642810568231488 0 0 0
930 1 6.698845098523317 18.8652846105611 2.164026494092823 0 0 0
931 1 8.918610240419909 17.300987619968403 2.16385823059929 0 0 0
943 1 11.138255034522214 18.865343114927757 2.163605513240712 0 0 0
944 1 13.358017600352962 17.30094974469077 2.163337745102477 0 0 0
960 1 15.577508748336982 18.8652995862788 2.1626047536217703 0 0 0
961 1 17.797313372883252 17.300765709204327 2.161930711732178 0 0 0
981 1 20.016566429419584 18.865206908545435 2.15998434024322 0 0 0
982 1 22.23752518913047 17.300817021337426 2.159268793312027 0 0 0
1776 1 15.578972611782639 0.09462337164571903 2.1640237927846115 0 0 0
1003 1 24.457011025208594 18.86443772489639 2.153963302642429 0 0 0
1283 1 24.458971644443007 12.607755920121166 2.161530874935051 0 0 0
1262 1 22.238831505049436 11.043538107444796 2.162795481836046 0 0 0
1061 1 2.2593644561468715 15.736676040196944 2.1644595635033155 0 0 0
1062 1 4.479169518793582 14.172385393095235 2.1643313047051733 0 0 0
1070 1 6.698914082126071 15.736687430766994 2.1640881619130057 0 0 0
1071 1 8.918723327438489 14.172394408594426 2.1639610976611743 0 0 0
1768 1 11.139029948494478 0.09457010112824804 2.164296766434582 0 0 0
1083 1 11.138413582105889 15.73664395453352 2.1637326332534035 0 0 0
1084 1 13.358302479769598 14.17226202307915 2.163617849082946 0 0 0
1100 1 15.57787293228123 15.736474800606869 2.1630051269671156 0 0 0
1101 1 17.79808068543654 14.172082195386835 2.1627898413078848 0 0 0
1121 1 20.017774761458714 15.73638269566824 2.161576404206236 0 0 0
1762 1 6.699200191891228 0.09451155392107324 2.1645936113922746 0 0 0
1122 1 22.23836793083781 14.172072499283013 2.161465241809006 0 0 0
1143 1 24.458506296188382 15.736370069933278 2.1589196865188782 0 0 0
1261 1 20.018443018386478 12.607767190156945 2.1627333610305506 0 0 0
1758 1 2.2594150927975227 0.09442600500317155 2.1647542591432933 0 0 0
1241 1 17.79860357440978 11.043588101020038 2.163458270905824 0 0 0
1201 1 2.259369568840879 12.60811480718659 2.1645047010625795 0 0 0
1202 1 4.479215562750485 11.043885248543573 2.1644263640042296 0 0 0
1210 1 6.699007679426617 12.608141833495658 2.1641870090681947 0 0 0
1211 1 8.91887352036885 11.043883513112917 2.164100889491041 0 0 0
1223 1 11.138626831074758 12.608066301966199 2.1639256084275607 0 0 0
1224 1 13.358632799164111 11.043739585856068 2.1639023014245047 0 0 0
3787 1 26.678997980069873 25.12642526168678 -0.00354949122406172 0 0 0
3832 1 26.678353631897377 15.73372909326578 -0.004123806805097753 0 0 0
1004 1 26.678591642193428 17.29823950876861 2.151497246590793 0 0 0
1424 1 26.67952250301654 7.915042182826811 2.1630819949527416 0 0 0
1284 1 26.67946033226404 11.043261721346141 2.1617729741252547 0 0 0
724 1 26.678535592559616 23.563276373170744 2.1507799910246845 0 0 0
7 1 0.03957152636196781 34.50795693694476 0.005674172913894789 0 0 0
3862 1 26.679169580645834 9.478304170519069 0.0035185384769086535 0 0 0
3802 1 26.678338205369258 21.995730276661522 -0.005511963787339337 0 0 0
864 1 26.67753331641385 20.430036858746085 2.151414804114641 0 0 0
777 1 0.039595888777270716 20.42962305041477 2.1644369478726984 0 0 0
917 1 0.03959771551533464 17.301006361214036 2.1644395438247055 0 0 0
637 1 0.039587729280817996 23.55822641334749 2.164459421870798 0 0 0
584 1 26.679105730946354 26.688487659651884 2.159153937326212 0 0 0
497 1 0.039582961030269814 26.686787204985926 2.1645045208722204 0 0 0
444 1 26.679364492175598 29.816045006656203 2.162197679934442 0 0 0
357 1 0.03955386049436527 29.815280267870953 2.1645815805401263 0 0 0
304 1 26.679454381774995 32.94409980448812 2.1633032322280186 0 0 0
1337 1 0.0395695910630991 7.915360099575007 2.1646221662941185 0 0 0
1477 1 0.0395528774280649 4.786944439627933 2.1647109888319136 0 0 0
217 1 0.0395311180598199 32.94371779802088 2.1646619318670433 0 0 0
191 1 26.679488798198623 36.07226757146638 2.163697146994187 0 0 0
145 1 0.03952826996860637 36.072105586495425 2.1647305487217854 0 0 0
1057 1 0.03959431620707221 14.172403114025904 2.1644709468569987 0 0 0
3847 1 26.678759401362186 12.60587508136154 0.0013188261183322623 0 0 0
1144 1 26.6794710763027 14.17133262213697 2.15854900765404 0 0 0
3817 1 26.678570203345046 18.864611308446488 -0.0055058754445736395 0 0 0
1197 1 0.03957985618981752 11.04384261513109 2.1645246582659454 0 0 0
3772 1 26.679349738392837 28.253396513013627 0.001842219641459658 0 0 0
3757 1 26.679453980192765 31.380705296054934 0.003813894992941795 0 0 0
3742 1 26.679482870160008 34.50845593788568 0.004525852901665681 0 0 0
1564 1 26.679571971475255 4.786815817666475 2.1636066633506066 0 0 0
1617 1 0.03953761251316479 1.6585736271703386 2.1647538896091914 0 0 0
139 1 0.03954553803765748 0.09440594905469575 0.0057207994332504125 0 0 0
127 1 0.03957076121119485 3.2227294584478727 0.005714763926877135 0 0 0
115 1 0.03959390289443121 6.35110267693072 0.005652199122427168 0 0 0
103 1 0.03961324593151261 9.47953543814941 0.005562478179499713 0 0 0
91 1 0.039645045602675566 12.608071009136587 0.005484672353731187 0 0 0
79 1 0.039653667297081086 15.736677961855566 0.00544557456255186 0 0 0
67 1 0.03965337738292618 18.8653128387305 0.005435662182720423 0 0 0
55 1 0.039649062168557236 21.993942126066315 0.005444695946508661 0 0 0
43 1 0.03964091521766022 25.12254308775797 0.005471689675072559 0 0 0
31 1 0.03960548899285499 28.25108968718176 0.005531629680288014 0 0 0
19 1 0.03957292493765863 31.379558706152437 0.005604595946296769 0 0 0
1704 1 26.67954941890882 1.6585957638662512 2.163786217021001 0 0 0
1598 1 15.579519210324086 6.35125704273743 24.451073060269593 0 0 0
1596 1 24.45952846205868 6.351179077966027 11.07701723863804 0 0 0
147 1 2.259434374594485 36.072120917137774 4.39135932000896 0 0 0
1595 1 24.45957782441288 4.786963651781462 13.306083660217054 0 0 0
1594 1 22.23944168141219 6.3510748380166415 13.306171127447048 0 0 0
150 1 2.2594537181801644 36.07208653458298 8.849155266150511 0 0 0
151 1 4.479394905005628 36.0721363986034 6.620213564853957 0 0 0
152 1 6.6992776609862 36.07219753010794 4.3911982962040055 0 0 0
1593 1 22.23953014038923 4.786923579409337 15.535173847960143 0 0 0
1592 1 20.019402661763742 6.351109247234216 15.535267392762224 0 0 0
155 1 2.2594639921379533 36.072057030434515 13.306888004290325 0 0 0
156 1 4.47945683011962 36.07209787998291 11.077974225193234 0 0 0
157 1 6.699401414120009 36.072138706222276 8.848993453923315 0 0 0
158 1 8.91928807552601 36.07217534564897 6.619971030084562 0 0 0
159 1 11.139130763621761 36.07223856852824 4.390917568364489 0 0 0
1591 1 20.019518787716734 4.786947805268095 17.764190982798368 0 0 0
1590 1 17.7994273644523 6.351166013034641 17.76427529100859 0 0 0
162 1 2.2594789054180984 36.07203648500229 17.76458753791591 0 0 0
163 1 4.4794878802870075 36.07205709074548 15.535698367264834 0 0 0
164 1 6.6994625503727585 36.07209944604648 13.306750882927915 0 0 0
165 1 8.91941511955563 36.07212249063262 11.077758802679563 0 0 0
166 1 11.139351043426293 36.07215076361569 8.848767546940588 0 0 0
167 1 13.359238134651399 36.07221365361106 6.61974467183261 0 0 0
168 1 15.579095262220358 36.07230925718298 4.390653422561177 0 0 0
1589 1 17.799512747155738 4.786980633900035 19.993186933247923 0 0 0
1588 1 15.5794608903742 6.351224526537018 19.993255415444544 0 0 0
171 1 2.2594868254201828 36.0720369682766 22.22227935883674 0 0 0
172 1 4.479500092204117 36.072036293121826 19.99340052482315 0 0 0
173 1 6.6995013578479075 36.07206858376296 17.76449168966619 0 0 0
174 1 8.919477665026552 36.072081396907166 15.535528053664772 0 0 0
175 1 11.139473072770047 36.07210414120595 13.306570493581951 0 0 0
176 1 13.35942046191299 36.072104539245736 11.077607547120431 0 0 0
177 1 15.5793733057896 36.07213589355852 8.84856873719816 0 0 0
178 1 17.79928224413939 36.072205917290354 6.61951186869382 0 0 0
179 1 20.019212901843737 36.07231548096203 4.390462557644551 0 0 0
1587 1 15.579515895947447 4.787019297782564 22.222153885776283 0 0 0
181 1 4.479508086679248 36.072034991861415 24.45111069866986 0 0 0
182 1 6.699520644397555 36.07204077730881 22.22221967197966 0 0 0
183 1 8.919529053463327 36.07205472421726 19.99330392585047 0 0 0
184 1 11.139517520279838 36.072053075000326 17.76435886919191 0 0 0
185 1 13.359510052111046 36.07206239112137 15.535419198619342 0 0 0
186 1 15.579498785997002 36.07204064172943 13.306447336724638 0 0 0
187 1 17.79947872343248 36.07204036177178 11.077406696501555 0 0 0
188 1 20.01946101249853 36.072067988701995 8.848356142161647 0 0 0
189 1 22.239421511141423 36.07214453254136 6.619300829152297 0 0 0
190 1 24.459412245653606 36.07222452823786 4.390322084277617 0 0 0
1586 1 13.35950188531133 6.35127708869718 22.22218504810081 0 0 0
192 1 8.91955080970636 36.072041636078865 24.451068368757515 0 0 0
193 1 11.13955162989565 36.07201464225975 22.222151944926235 0 0 0
194 1 13.359565652339326 36.072017712599084 19.993222330637 0 0 0
195 1 15.579546155342499 36.07201391822118 17.764265303821446 0 0 0
196 1 17.799530087576414 36.072009413975024 15.535285874055313 0 0 0
197 1 20.019548263276757 36.07198175685011 13.306244644934958 0 0 0
198 1 22.239545153235078 36.07198744747853 11.077185386888605 0 0 0
199 1 24.459550676615677 36.07201299746296 8.848165030801642 0 0 0
1585 1 13.35953457413785 4.787028085472945 24.451069142886137 0 0 0
201 1 13.359576507262773 36.07200814457623 24.451024423674188 0 0 0
202 1 15.579584144748832 36.07199777058977 22.222083106886082 0 0 0
203 1 17.79957672351421 36.071993549509585 19.993120429793237 0 0 0
204 1 20.019567176464975 36.07198828433841 17.764139145938678 0 0 0
205 1 22.239557082177896 36.071985726900735 15.535112493140062 0 0 0
206 1 24.459567596540698 36.07197569565147 13.306078720058508 0 0 0
1584 1 11.13953114375477 6.351303351092429 24.451094538161623 0 0 0
208 1 17.79960576124975 36.07199865988526 24.450957348780847 0 0 0
209 1 20.01959448466367 36.07199763080307 22.22200792661791 0 0 0
210 1 22.239588019514873 36.071994312147716 19.99303707873711 0 0 0
211 1 24.45958648022771 36.072010911105245 17.76403996917037 0 0 0
1599 1 17.79953223616761 4.787004460634852 24.45103120719512 0 0 0
213 1 22.239619839867764 36.0720150872821 24.45092913340095 0 0 0
214 1 24.459600260230008 36.072036438554704 22.22197482697818 0 0 0
1600 1 17.79949147060951 6.351228539400583 22.222145539723424 0 0 0
1581 1 24.45954744004435 6.351337270286532 6.619048673469093 0 0 0
1580 1 24.459575540855194 4.787048350075734 8.848108891919217 0 0 0
1579 1 22.23943767141296 6.351148360546146 8.8481291825839 0 0 0
1578 1 22.23950558829693 4.786942089538485 11.077188955161516 0 0 0
220 1 2.2594185736840324 32.94371762836173 4.391282625967237 0 0 0
1577 1 20.01932467269124 6.35105697117338 11.07725914099339 0 0 0
1576 1 20.019457973333736 4.786905363403336 13.306278817620173 0 0 0
1575 1 17.799317164393372 6.351105964634821 13.306363954370806 0 0 0
1574 1 17.79946808177459 4.786937977883795 15.535299705972953 0 0 0
225 1 2.2594509960096567 32.94365237289917 8.849076085829614 0 0 0
226 1 2.2594353436112984 34.50789034254224 6.620230028719567 0 0 0
227 1 4.479363874970488 32.94371285046392 6.620122959904646 0 0 0
228 1 4.479342711180629 34.507963354909506 4.3912745540404865 0 0 0
229 1 6.6992015508141085 32.94377765244438 4.391116384852746 0 0 0
1573 1 15.579370123410587 6.351170322839657 15.535371921788414 0 0 0
1572 1 15.57947787073911 4.786998075802015 17.76430394724493 0 0 0
1571 1 13.359422944082084 6.351243185855013 17.76437020968143 0 0 0
1570 1 13.359493275428589 4.787027620150332 19.99327145245133 0 0 0
234 1 2.259461762319484 32.943595613301014 13.306830180874783 0 0 0
235 1 2.2594546610399115 34.507842165085286 11.07799486561048 0 0 0
236 1 4.479420432906682 32.94364930564452 11.077901155819324 0 0 0
237 1 4.479422278119711 34.50790151455997 8.849064864841422 0 0 0
238 1 6.699349766541839 32.94369936154625 8.848932604912475 0 0 0
239 1 6.69933151482109 34.50794846807084 6.620076715667208 0 0 0
240 1 8.919207356474434 32.94375502097755 6.619931040825118 0 0 0
241 1 8.919152308464199 34.50801680456767 4.391035244022243 0 0 0
242 1 11.138988953968889 32.94387661034785 4.390861114983901 0 0 0
1569 1 11.139470879514151 6.351292820995901 19.99331715130907 0 0 0
1568 1 11.13952385142525 4.787056599072616 22.22219789708773 0 0 0
1567 1 8.919511368659084 6.351320993560781 22.22223249331918 0 0 0
1566 1 8.919538660482205 4.787089806206772 24.451108425249675 0 0 0
247 1 2.259472524215609 32.94355641042768 17.76455044193462 0 0 0
248 1 2.2594672662680697 34.50780907592512 15.53572074438663 0 0 0
249 1 4.479462159910168 32.94359060411638 15.535645995303701 0 0 0
250 1 4.479456186370628 34.507849172737686 13.30681150014291 0 0 0
251 1 6.69942507752341 32.94363205277899 13.306702311842042 0 0 0
252 1 6.699428457109396 34.50789270931742 11.077856251790108 0 0 0
253 1 8.919367696588663 32.943684399065106 11.077756334764059 0 0 0
254 1 8.919341968378411 34.50794120648862 8.848867591476637 0 0 0
255 1 11.1392414117683 32.94375057713227 8.848752503776081 0 0 0
256 1 11.139204703062164 34.50799995236057 6.619842807912783 0 0 0
257 1 13.359089719513396 32.94386735673314 6.619679694218944 0 0 0
258 1 13.359025561585865 34.50812100907924 4.390762448786152 0 0 0
259 1 15.578922640949626 32.94402318578531 4.3905600653404075 0 0 0
1565 1 6.699521000541344 6.351365329290432 24.45112909165608 0 0 0
1718 1 22.239563540337567 1.6585402756101744 11.077256348046529 0 0 0
1719 1 22.23950958076552 3.222790430164061 8.848277877435827 0 0 0
1562 1 24.459494539639575 4.787042688121045 4.390285204869772 0 0 0
264 1 2.25948952735262 32.94355065662867 22.222261809494984 0 0 0
265 1 2.2594889488742247 34.50779365534345 19.993418411578336 0 0 0