ITEM: TIMESTEP
1464
ITEM: NUMBER OF ATOMS
7201
ITEM: BOX BOUNDS pp pp pp
3.9987639691081177e-02 5.3319212135888442e+01
9.4504239592568415e-02 3.7636147760407695e+01
-2.2328835546774300e+01 7.5688035322353613e+01
ITEM: ATOMS id x y z
1 2.26007 36.072 0.00568367
2 6.70002 36.0719 0.00547272
3 11.14 36.0719 0.00542637
4 15.5799 36.072 0.00550478
5 20.0197 36.0721 0.00549431
6 24.4597 36.0722 0.00543462
1703 24.4597 3.22286 2.16457
8 2.26008 32.9435 0.00558145
9 4.48005 34.5077 0.00558599
10 6.70002 32.9435 0.005579
11 8.91999 34.5077 0.0054885
12 11.1399 32.9435 0.00553769
13 13.3599 34.5078 0.00546996
14 15.5798 32.9436 0.00536862
15 17.7998 34.5079 0.00539896
16 20.0198 32.9438 0.0052261
17 22.2397 34.508 0.00532264
18 24.4597 32.9439 0.00529478
1682 22.2398 1.65874 2.16463
20 2.2601 29.8151 0.00543198
21 4.48007 31.3793 0.00556736
22 6.70002 29.815 0.00565319
23 8.91994 31.3793 0.00564159
24 11.1398 29.8151 0.00562396
25 13.3598 31.3793 0.00546217
26 15.5798 29.8151 0.00524887
27 17.7998 31.3794 0.00517984
28 20.0198 29.8152 0.00518389
29 22.2398 31.3796 0.00525359
30 24.4599 29.8153 0.00546817
1681 20.0198 3.22291 2.16461
32 2.26012 26.6866 0.00528515
33 4.48009 28.2508 0.00550472
34 6.70001 26.6866 0.00564628
35 8.9199 28.2508 0.00572153
36 11.1398 26.6866 0.00561673
37 13.3598 28.2508 0.00542147
38 15.5798 26.6866 0.00520619
39 17.7999 28.2509 0.00515952
40 20.02 26.6866 0.00534002
41 22.2399 28.251 0.00545658
42 24.46 26.6868 0.00610566
1661 17.7998 1.65874 2.16463
44 2.26013 23.5581 0.0051775
45 4.4801 25.1223 0.00542498
46 6.70001 23.5581 0.00560062
47 8.91989 25.1223 0.00569832
48 11.1398 23.5581 0.00554745
49 13.3598 25.1224 0.0053524
50 15.5799 23.5581 0.00518101
51 17.8 25.1223 0.00519513
52 20.0203 23.558 0.00551258
53 22.2402 25.1224 0.00590476
54 24.4603 23.5584 0.00653318
1660 15.5799 3.22293 2.16456
56 2.26012 20.4296 0.00514354
57 4.48011 21.9938 0.00536994
58 6.70003 20.4296 0.00557355
59 8.91989 21.9938 0.0056504
60 11.1398 20.4296 0.00551291
61 13.3598 21.9938 0.00528852
62 15.58 20.4296 0.00515495
63 17.8001 21.9938 0.00523404
64 20.0204 20.4296 0.0055081
65 22.2408 21.9936 0.00583135
66 24.4624 20.4296 0.00378897
1644 13.36 1.65874 2.16447
68 2.26013 17.301 0.00517755
69 4.48011 18.8653 0.00536998
70 6.70001 17.301 0.00560072
71 8.91989 18.8653 0.00565046
72 11.1398 17.301 0.00554755
73 13.3598 18.8653 0.00528853
74 15.5799 17.301 0.00518083
75 17.8001 18.8653 0.00523378
76 20.0203 17.3011 0.00551215
77 22.2408 18.8655 0.00583088
78 24.4603 17.3008 0.00653275
1643 11.14 3.22296 2.16438
80 2.26012 14.1725 0.00528522
81 4.4801 15.7368 0.00542508
82 6.70001 14.1725 0.00564648
83 8.91989 15.7368 0.00569849
84 11.1398 14.1725 0.00561693
85 13.3598 15.7368 0.00535247
86 15.5798 14.1725 0.00520613
87 17.8 15.7368 0.00519475
88 20.02 14.1725 0.00533937
89 22.2402 15.7367 0.00590354
90 24.46 14.1724 0.00610472
1631 8.92007 1.65874 2.16434
92 2.2601 11.044 0.00543203
93 4.48009 12.6083 0.00550487
94 6.70001 11.0441 0.00565341
95 8.9199 12.6083 0.0057218
96 11.1398 11.0441 0.00562433
97 13.3598 12.6083 0.00542173
98 15.5798 11.044 0.00524913
99 17.7999 12.6082 0.00515936
100 20.0198 11.0439 0.00518369
101 22.2399 12.6082 0.0054561
102 24.4599 11.0438 0.00546793
1630 6.70009 3.22296 2.16442
104 2.26008 7.91558 0.00558149
105 4.48007 9.47983 0.00556749
106 6.70002 7.91564 0.0055792
107 8.91994 9.47987 0.0056419
108 11.1399 7.91563 0.00553809
109 13.3598 9.4798 0.00546266
110 15.5798 7.9155 0.00536915
111 17.7998 9.47969 0.00518018
112 20.0198 7.91537 0.0052265
113 22.2398 9.47956 0.00525353
114 24.4597 7.91528 0.00529499
1622 4.48011 1.65874 2.16455
116 2.26007 4.78715 0.00568368
117 4.48005 6.35139 0.00558608
118 6.70002 4.78719 0.00547282
119 8.91999 6.35143 0.00548876
120 11.14 4.78719 0.00542667
121 13.3599 6.35135 0.00547044
122 15.5799 4.7871 0.00550525
123 17.7998 6.35121 0.00539945
124 20.0197 4.78698 0.00549475
125 22.2397 6.35112 0.00532311
126 24.4597 4.78692 0.00543504
1621 2.2601 3.22296 2.16467
128 2.26006 1.65874 0.00572047
129 4.48003 3.22296 0.0055778
130 6.70003 1.65874 0.00542077
131 8.92003 3.22297 0.00536582
132 11.14 1.65874 0.0053754
133 13.36 3.22294 0.005469
134 15.5799 1.65874 0.00556644
135 17.7998 3.22288 0.00559303
136 20.0198 1.65874 0.00562669
137 22.2397 3.22282 0.00557472
138 24.4597 1.65874 0.00559439
1563 24.4597 6.35113 2.16435
140 4.48003 0.0945217 0.00557777
141 8.92003 0.0945146 0.00536572
142 13.36 0.0945381 0.0054688
143 17.7998 0.0946031 0.00559273
144 22.2397 0.0946605 0.00557444
1542 22.2397 4.78702 2.16449
1541 20.0198 6.35124 2.16436
1521 17.7998 4.78711 2.16452
1520 15.5799 6.35135 2.16443
863 24.4599 21.9936 2.16516
1504 13.3599 4.78715 2.16447
1240 15.5798 12.6083 2.16419
1503 11.14 6.35138 2.16447
1491 8.92005 4.78717 2.16441
1490 6.70005 6.3514 2.1645
1224 13.3599 11.044 2.16442
1223 11.1399 12.6083 2.16461
1482 4.48009 4.78718 2.16455
148 4.48009 36.0719 2.16455
153 8.92005 36.072 2.16441
160 13.3599 36.072 2.16447
169 17.7998 36.072 2.16452
180 22.2397 36.0721 2.16449
1481 2.26009 6.35141 2.16461
1423 24.4597 9.47946 2.16432
221 2.26009 34.5077 2.16461
222 4.48006 32.9435 2.16456
230 6.70006 34.5077 2.1645
231 8.91999 32.9435 2.16455
243 11.14 34.5077 2.16447
244 13.3599 32.9435 2.16446
260 15.5799 34.5078 2.16443
261 17.7998 32.9436 2.16428
281 20.0198 34.5079 2.16436
282 22.2397 32.9438 2.16424
303 24.4597 34.508 2.16435
1402 22.2397 7.91536 2.16424
1401 20.0198 9.47963 2.16416
361 2.26007 31.3793 2.16448
362 4.48003 29.815 2.16452
370 6.70001 31.3793 2.1646
371 8.91994 29.815 2.16467
383 11.1399 31.3793 2.16457
384 13.3599 29.8151 2.16442
400 15.5798 31.3794 2.16429
401 17.7998 29.8152 2.16411
421 20.0198 31.3795 2.16416
422 22.2397 29.8154 2.16429
443 24.4597 31.3797 2.16432
1381 17.7998 7.91549 2.16428
1380 15.5798 9.47977 2.16429
501 2.26006 28.2508 2.16434
502 4.48001 26.6865 2.16444
510 6.69997 28.2508 2.16463
511 8.91992 26.6866 2.16468
523 11.1399 28.2508 2.16461
524 13.3599 26.6866 2.16435
540 15.5798 28.2509 2.16419
541 17.7998 26.6867 2.16415
561 20.0198 28.251 2.1642
562 22.2398 26.6868 2.1646
583 24.4598 28.2512 2.16468
1364 13.3599 7.91559 2.16446
1363 11.1399 9.47983 2.16457
641 2.26006 25.1223 2.16421
642 4.48001 23.5581 2.16437
650 6.69995 25.1223 2.1646
651 8.91992 23.5581 2.16464
663 11.1399 25.1223 2.16455
664 13.3599 23.5581 2.16429
680 15.5799 25.1223 2.16415
681 17.8 23.5581 2.16414
701 20.0199 25.1224 2.16438
702 22.24 23.5582 2.16489
723 24.4598 25.1226 2.16527
1351 8.91999 7.91562 2.16455
1350 6.70001 9.47986 2.1646
781 2.26005 21.9938 2.16414
782 4.48 20.4296 2.16434
790 6.69996 21.9938 2.16455
791 8.91993 20.4296 2.16461
1797 24.4597 0.0946254 2.16457
803 11.1399 21.9938 2.16448
804 13.3599 20.4296 2.16423
820 15.5799 21.9938 2.16411
821 17.8 20.4296 2.16418
841 20.0201 21.9938 2.16443
842 22.2404 20.4296 2.16447
1003 24.4599 18.8655 2.16516
1342 4.48006 7.91563 2.16456
1341 2.26007 9.47986 2.16448
921 2.26005 18.8653 2.16414
1786 20.0198 0.0945689 2.16461
922 4.48001 17.3011 2.16437
930 6.69996 18.8653 2.16455
931 8.91992 17.3011 2.16464
943 11.1399 18.8653 2.16448
944 13.3599 17.3011 2.16429
960 15.5799 18.8653 2.16411
961 17.8 17.301 2.16414
981 20.0201 18.8653 2.16443
982 22.24 17.301 2.16489
1776 15.5799 0.0945548 2.16456
917 0.0401065 17.3011 2.16411
1283 24.4598 12.6079 2.16468
1262 22.2397 11.0438 2.16429
1061 2.26006 15.7368 2.16421
1062 4.48001 14.1726 2.16444
1070 6.69995 15.7368 2.1646
1071 8.91992 14.1726 2.16468
1768 11.14 0.0945271 2.16438
1083 11.1399 15.7368 2.16455
1084 13.3599 14.1726 2.16435
1100 15.5799 15.7368 2.16415
1101 17.7998 14.1724 2.16415
1121 20.0199 15.7367 2.16438
1762 6.70009 0.0945261 2.16442
1122 22.2398 14.1723 2.1646
1143 24.4598 15.7365 2.16527
1261 20.0198 12.6081 2.1642
1758 2.2601 0.094522 2.16467
1241 17.7998 11.044 2.16411
1201 2.26006 12.6083 2.16434
1202 4.48003 11.0441 2.16452
1210 6.69997 12.6083 2.16463
1211 8.91994 11.0441 2.16467
777 0.0401042 20.4296 2.16406
79 0.0400962 15.7368 0.00516238
91 0.0401011 12.6083 0.00530873
103 0.0401034 9.47979 0.00549186
115 0.040108 6.35136 0.00565149
127 0.0401123 3.22294 0.005744
139 0.0401124 0.0945428 0.00574403
217 0.0401038 32.9435 2.16455
637 0.0401065 23.5581 2.16411
67 0.0400893 18.8653 0.00507877
1197 0.0401065 11.0441 2.16439
1477 0.0400937 4.78718 2.16468
1057 0.0401114 14.1726 2.16421
1617 0.0400943 1.65874 2.16471
145 0.0400937 36.0719 2.16468
7 0.0401081 34.5078 0.00565151
497 0.0401115 26.6865 2.16421
19 0.0401035 31.3793 0.00549191
31 0.0401012 28.2509 0.00530872
357 0.0401067 29.815 2.16439
43 0.0400963 25.1224 0.00516238
55 0.0400894 21.9938 0.00507876
1337 0.0401036 7.91563 2.16455
1598 15.5798 6.35139 24.4511
1596 24.4598 6.35146 11.0778
147 2.2601 36.0719 4.3912
1595 24.4597 4.78728 13.3068
1594 22.2398 6.35154 13.3067
150 2.26009 36.0719 8.84892
151 4.48011 36.0719 6.62001
152 6.70011 36.0719 4.39105
1593 22.2398 4.78732 15.5356
1592 20.0198 6.35158 15.5355
155 2.26004 36.0719 13.3067
156 4.48007 36.0719 11.0778
157 6.7001 36.0719 8.84883
158 8.9201 36.0719 6.61992
159 11.14 36.072 4.39103
1591 20.0198 4.78728 17.7644
1590 17.7998 6.35153 17.7644
162 2.26001 36.0719 17.7646
163 4.47999 36.0719 15.5356
164 6.70002 36.0719 13.3066
165 8.92006 36.0719 11.0777
166 11.1401 36.0719 8.84883
167 13.36 36.0719 6.61999
168 15.5799 36.072 4.39113
1589 17.7998 4.78723 19.9932
1588 15.5798 6.35145 19.9933
171 2.25999 36.0719 22.2225
172 4.47995 36.0719 19.9935
173 6.69992 36.0719 17.7644
174 8.91995 36.0719 15.5355
175 11.14 36.0719 13.3066
176 13.36 36.0719 11.0777
177 15.58 36.0719 8.84892
178 17.7999 36.0719 6.62006
179 20.0198 36.072 4.39112
1587 15.5798 4.78718 22.2221
181 4.47996 36.0719 24.4513
182 6.6999 36.0719 22.2223
183 8.91986 36.0719 19.9933
184 11.1399 36.0719 17.7643
185 13.3599 36.0719 15.5355
186 15.5799 36.0719 13.3066
187 17.7999 36.0718 11.0778
188 20.0199 36.0719 8.849
189 22.2398 36.072 6.62007
190 24.4597 36.0721 4.39113
1586 13.3598 6.3514 22.2222
192 8.91988 36.0719 24.4512
193 11.1398 36.0719 22.2222
194 13.3598 36.0719 19.9932
195 15.5798 36.0719 17.7643
196 17.7999 36.0718 15.5355
197 20.0199 36.0718 13.3067
198 22.2398 36.0719 11.0779
199 24.4598 36.072 8.84903
1585 13.3598 4.78717 24.4511
201 13.3598 36.072 24.4511
202 15.5798 36.0719 22.2221
203 17.7998 36.0719 19.9932
204 20.0198 36.0718 17.7644
205 22.2398 36.0718 15.5356
206 24.4597 36.0718 13.3068
1584 11.1398 6.35139 24.4511
208 17.7997 36.072 24.4511
209 20.0197 36.0719 22.2221
210 22.2397 36.0719 19.9933
211 24.4597 36.0718 17.7644
1599 17.7997 4.78717 24.4511
213 22.2397 36.0719 24.4511
214 24.4597 36.0719 22.2222
1600 17.7997 6.35142 22.2222
1581 24.4597 6.35123 6.61999
1580 24.4598 4.78715 8.84903
1579 22.2398 6.35139 8.84891
1578 22.2398 4.78723 11.0779
220 2.26009 32.9435 4.39113
1577 20.0198 6.35149 11.0778
1576 20.0199 4.7873 13.3067
1575 17.7999 6.35156 13.3067
1574 17.7999 4.78729 15.5355
225 2.26008 32.9434 8.84888
226 2.26009 34.5077 6.62003
227 4.48008 32.9435 6.62001
228 4.48009 34.5077 4.39113
229 6.70005 32.9435 4.39114
1573 15.5799 6.35152 15.5355
1572 15.5798 4.78724 17.7643
1571 13.3599 6.35145 17.7644
1570 13.3598 4.78719 19.9932
234 2.26005 32.9434 13.3067
235 2.26007 34.5077 11.0778
236 4.48006 32.9434 11.0778
237 4.48009 34.5077 8.84888
238 6.70007 32.9435 8.8489
239 6.70009 34.5077 6.61998
240 8.92005 32.9435 6.62003
241 8.92005 34.5077 4.39107
242 11.14 32.9435 4.39112
1569 11.1398 6.35142 19.9933
1568 11.1398 4.78718 22.2222
1567 8.91986 6.35141 22.2223
1566 8.91988 4.78719 24.4512
247 2.26001 32.9434 17.7645
248 2.26003 34.5077 15.5356
249 4.48 32.9435 15.5356
250 4.48003 34.5077 13.3067
251 6.70001 32.9435 13.3067
252 6.70006 34.5077 11.0777
253 8.92004 32.9434 11.0778
254 8.92007 34.5077 8.84885
255 11.14 32.9434 8.8489
256 11.14 34.5077 6.61998
257 13.36 32.9435 6.61999
258 13.36 34.5077 4.39108
259 15.5799 32.9435 4.39098
1565 6.69992 6.35143 24.4513
1718 22.2398 1.65874 11.078
1719 22.2398 3.22295 8.84908
1562 24.4597 4.78703 4.39113
264 2.25999 32.9434 22.2224
265 2.25999 34.5077 19.9935
266 4.47995 32.9435 19.9934
267 4.47996 34.5077 17.7645
268 6.69993 32.9435 17.7645
269 6.69997 34.5077 15.5355
270 8.91995 32.9435 15.5355
271 8.92001 34.5077 13.3066
272 11.14 32.9434 13.3067
273 11.14 34.5077 11.0777
274 13.36 32.9434 11.0778
275 13.36 34.5077 8.84888
276 15.5799 32.9434 8.84887
277 15.5799 34.5077 6.61999
278 17.7999 32.9435 6.61987
279 17.7998 34.5078 4.39102
280 20.0197 32.9437 4.39091
1561 22.2397 6.3512 4.39102
1560 22.2398 4.78712 6.62007
283 2.26 34.5077 24.4514
284 4.47995 32.9434 24.4513
285 4.47994 34.5077 22.2224
286 6.6999 32.9435 22.2223
287 6.6999 34.5077 19.9934
288 8.91988 32.9435 19.9933
289 8.9199 34.5077 17.7644
290 11.1399 32.9435 17.7644
291 11.1399 34.5077 15.5355
292 13.3599 32.9434 15.5355
293 13.36 34.5076 13.3066
294 15.5799 32.9433 13.3067
295 15.58 34.5076 11.0778
296 17.7999 32.9434 11.0778
297 17.7999 34.5077 8.84891
298 20.0198 32.9435 8.84881
299 20.0198 34.5078 6.61996
300 22.2397 32.9437 6.61989
301 22.2397 34.5079 4.39102
302 24.4597 32.9438 4.39094
1559 20.0198 6.35136 6.61996
1558 20.0199 4.7872 8.849
305 6.69992 34.5077 24.4513
306 8.91987 32.9435 24.4512
307 8.91986 34.5077 22.2223
308 11.1398 32.9435 22.2222
309 11.1398 34.5077 19.9933
310 13.3598 32.9435 19.9933
311 13.3599 34.5077 17.7644
312 15.5799 32.9434 17.7644
313 15.5799 34.5076 15.5355
314 17.7999 32.9433 15.5355
315 17.7999 34.5076 13.3067
316 20.0198 32.9433 13.3067
317 20.0199 34.5076 11.0778
318 22.2398 32.9434 11.0778
319 22.2398 34.5077 8.84891
320 24.4597 32.9436 8.84885
321 24.4597 34.5079 6.61999
1557 17.7999 6.35146 8.84891
1556 17.7999 4.78728 11.0778
324 11.1398 34.5077 24.4511
325 13.3598 32.9435 24.4511
326 13.3598 34.5077 22.2222
327 15.5798 32.9435 22.2222
328 15.5798 34.5077 19.9933
329 17.7998 32.9434 19.9933
330 17.7998 34.5076 17.7644
331 20.0198 32.9433 17.7644
332 20.0198 34.5075 15.5355
333 22.2398 32.9433 15.5356
334 22.2398 34.5076 13.3067
335 24.4597 32.9434 13.3067
336 24.4598 34.5077 11.0778
1555 15.58 6.35152 11.0778
338 15.5798 34.5077 24.4511
339 17.7997 32.9435 24.4511
340 17.7997 34.5077 22.2222
341 20.0197 32.9434 22.2222
342 20.0197 34.5076 19.9933
343 22.2397 32.9434 19.9933
344 22.2397 34.5076 17.7644
345 24.4597 32.9433 17.7645
346 24.4597 34.5075 15.5356
1554 15.5799 4.78727 13.3066
348 20.0197 34.5077 24.4511
349 22.2397 32.9435 24.4511
350 22.2397 34.5077 22.2222
351 24.4597 32.9434 22.2222
352 24.4597 34.5076 19.9933
1553 13.36 6.3515 13.3066
354 24.4596 34.5077 24.4511
1552 13.3599 4.78724 15.5355
1551 11.1399 6.35146 15.5355
1550 11.1399 4.7872 17.7643
1549 8.9199 6.35143 17.7644
1548 8.91986 4.78718 19.9933
360 2.26006 29.815 4.39102
1547 6.6999 6.35142 19.9934
1546 6.6999 4.78719 22.2223
1545 4.47995 6.35144 22.2224
1544 4.47996 4.78721 24.4513
365 2.26008 29.8149 8.84881
366 2.26008 31.3792 6.61997
367 4.48005 29.815 6.61999
368 4.48006 31.3792 4.39112
369 6.70001 29.815 4.39119
1543 2.26 6.35146 24.4514
1720 24.4598 1.65874 8.84913
1721 24.4598 3.22292 6.62018
1540 20.0198 4.78711 4.39113
374 2.26005 29.8149 13.3066
375 2.26007 31.3792 11.0777
376 4.48005 29.815 11.0778
377 4.48006 31.3792 8.84888
378 6.70004 29.815 8.84895
379 6.70005 31.3792 6.62005
380 8.92001 29.815 6.62011
381 8.91999 31.3793 4.3912
382 11.1399 29.815 4.39118
1539 17.7998 6.35136 4.39102
1538 17.7999 4.78718 6.62006
1537 15.5799 6.35141 6.61999
1536 15.58 4.78724 8.84892
387 2.26002 29.815 17.7645
388 2.26003 31.3792 15.5356
389 4.48 29.815 15.5355
390 4.48003 31.3792 13.3067
391 6.70003 29.815 13.3067
392 6.70005 31.3792 11.0778
393 8.92003 29.815 11.0779
394 8.92004 31.3792 8.84895
395 11.14 29.815 8.84897
396 11.14 31.3792 6.62005
397 13.3599 29.815 6.61996
398 13.3599 31.3793 4.39105
399 15.5798 29.8151 4.39088
1535 13.36 6.35146 8.84888
1534 13.36 4.78724 11.0777
1533 11.14 6.35146 11.0777
1532 11.14 4.78723 13.3066
404 2.25999 29.815 22.2223
405 2.26 31.3792 19.9934
406 4.47995 29.815 19.9934
407 4.47997 31.3792 17.7645
408 6.69994 29.815 17.7645
409 6.69998 31.3792 15.5356
410 8.91997 29.815 15.5356
411 8.92001 31.3792 13.3067
412 11.14 29.8149 13.3067
413 11.14 31.3792 11.0778
414 13.36 29.8149 11.0778
415 13.36 31.3792 8.8489
416 15.5799 29.815 8.84878
417 15.5799 31.3792 6.61987
418 17.7998 29.8151 6.61976
419 17.7998 31.3794 4.39085
420 20.0197 29.8153 4.39078
1531 8.92001 6.35144 13.3066
1530 8.91995 4.7872 15.5355
423 2.25999 31.3792 24.4513
424 4.47994 29.815 24.4512
425 4.47994 31.3792 22.2223
426 6.6999 29.815 22.2223
427 6.69991 31.3792 19.9934
428 8.91988 29.815 19.9934
429 8.91992 31.3792 17.7645
430 11.1399 29.815 17.7645
431 11.1399 31.3792 15.5356
432 13.3599 29.8149 15.5356
433 13.36 31.3791 13.3067
434 15.5799 29.8149 13.3067
435 15.5799 31.3792 11.0778
436 17.7999 29.8149 11.0777
437 17.7999 31.3792 8.84876
438 20.0197 29.8151 8.8487
439 20.0197 31.3794 6.61979
440 22.2397 29.8153 6.61979
441 22.2397 31.3795 4.39085
442 24.4597 29.8155 4.39101
1529 6.69997 6.35143 15.5355
1528 6.69992 4.78719 17.7644
445 6.69991 31.3792 24.4512
446 8.91987 29.815 24.4512
447 8.91986 31.3793 22.2223
448 11.1398 29.815 22.2223
449 11.1399 31.3793 19.9933
450 13.3599 29.815 19.9934
451 13.3599 31.3792 17.7645
452 15.5799 29.8149 17.7645
453 15.5799 31.3791 15.5356
454 17.7999 29.8149 15.5356
455 17.7999 31.3791 13.3066
456 20.0198 29.8149 13.3066
457 20.0198 31.3792 11.0777
458 22.2397 29.815 11.0777
459 22.2397 31.3794 8.84877
460 24.4597 29.8152 8.84878
461 24.4597 31.3796 6.61985
1527 4.47996 6.35143 17.7645
1526 4.47995 4.7872 19.9935
464 11.1398 31.3793 24.4512
465 13.3598 29.815 24.4512
466 13.3598 31.3793 22.2222
467 15.5798 29.815 22.2223
468 15.5798 31.3792 19.9933
469 17.7998 29.8149 19.9934
470 17.7998 31.3791 17.7645
471 20.0198 29.8149 17.7645
472 20.0198 31.3791 15.5355
473 22.2398 29.8148 15.5355
474 22.2398 31.3791 13.3066
475 24.4597 29.815 13.3066
476 24.4597 31.3793 11.0777
1525 2.25999 6.35144 19.9935
478 15.5798 31.3793 24.4511
479 17.7998 29.815 24.4512
480 17.7998 31.3792 22.2222
481 20.0197 29.815 22.2223
482 20.0198 31.3791 19.9934
483 22.2397 29.8149 19.9934
484 22.2397 31.3791 17.7645
485 24.4597 29.8148 17.7645
486 24.4597 31.3791 15.5356
1524 2.25999 4.78721 22.2225
488 20.0197 31.3793 24.4512
489 22.2397 29.815 24.4512
490 22.2397 31.3792 22.2223
491 24.4597 29.8149 22.2223
492 24.4597 31.3791 19.9934
1601 20.0197 4.78721 22.2221
494 24.4597 31.3793 24.4512
1602 20.0197 6.3515 19.9933
1603 22.2397 4.78726 19.9933
1604 22.2397 6.35156 17.7644
1519 15.5799 4.78716 4.39113
1518 13.36 6.35139 4.39108
500 2.26006 26.6865 4.39089
1517 13.36 4.7872 6.61999
1516 11.14 6.35142 6.61998
1515 11.1401 4.78721 8.84883
1514 8.92007 6.35144 8.84885
505 2.26007 26.6865 8.84874
506 2.26007 28.2507 6.61987
507 4.48003 26.6865 6.61994
508 4.48002 28.2507 4.39108
509 6.69997 26.6865 4.39119
1513 8.92006 4.78721 11.0777
1823 24.4596 0.0945198 24.451
1512 6.70006 6.35144 11.0777
1511 6.70002 4.7872 13.3066
514 2.26006 26.6865 13.3066
515 2.26006 28.2507 11.0777
516 4.48005 26.6865 11.0777
517 4.48006 28.2507 8.84886
518 6.70004 26.6865 8.84895
519 6.70001 28.2507 6.62008
520 8.91999 26.6865 6.62013
521 8.91997 28.2508 4.39125
522 11.1399 26.6865 4.39117
1822 24.4597 37.6361 19.9933
1821 22.2397 0.0945096 22.2221
1510 4.48003 6.35145 13.3067
1509 4.47999 4.7872 15.5356
527 2.26002 26.6865 17.7644
528 2.26004 28.2507 15.5355
529 4.48002 26.6865 15.5355
530 4.48004 28.2507 13.3066
531 6.70003 26.6865 13.3067
532 6.70004 28.2507 11.0778
533 8.92004 26.6865 11.0779
534 8.92002 28.2507 8.84901
535 11.14 26.6865 8.84897
536 11.14 28.2507 6.62007
537 13.3599 26.6865 6.61992
538 13.3599 28.2508 4.39101
539 15.5798 26.6866 4.39079
1820 20.0197 0.0945222 24.451
1819 24.4597 37.6361 15.5356
1508 2.26003 6.35145 15.5356
1507 2.26001 4.78721 17.7646
544 2.25999 26.6865 22.2223
545 2.26 28.2507 19.9934
546 4.47995 26.6865 19.9933
547 4.47998 28.2507 17.7644
548 6.69996 26.6865 17.7645
549 6.69999 28.2507 15.5356
550 8.91999 26.6865 15.5357
551 8.92002 28.2507 13.3068
552 11.14 26.6865 13.3068
553 11.14 28.2507 11.0779
554 13.36 26.6865 11.0778
555 13.3599 28.2507 8.84887
556 15.5799 26.6865 8.84874
557 15.5798 28.2508 6.6198
558 17.7997 26.6866 6.61968
559 17.7998 28.2509 4.39074
560 20.0197 26.6868 4.39086
1818 22.2397 37.6361 17.7644
1817 20.0197 37.6361 19.9932
563 2.25999 28.2507 24.4512
564 4.47993 26.6865 24.4512
565 4.47994 28.2507 22.2223
566 6.69989 26.6865 22.2223
567 6.69992 28.2508 19.9934
568 8.9199 26.6865 19.9934
569 8.91993 28.2507 17.7645
570 11.1399 26.6865 17.7646
571 11.14 28.2507 15.5357
572 13.36 26.6865 15.5357
573 13.36 28.2507 13.3067
574 15.5799 26.6864 13.3067
575 15.5799 28.2507 11.0777
576 17.7998 26.6865 11.0776
577 17.7998 28.2508 8.84869
578 20.0197 26.6866 8.84868
579 20.0197 28.251 6.61974
580 22.2396 26.6868 6.61995
581 22.2397 28.2512 4.39098
582 24.4597 26.687 4.39143
1816 17.7997 0.0945112 22.2221
1815 15.5798 0.094533 24.4511
585 6.69989 28.2507 24.4512
586 8.91985 26.6865 24.4512
587 8.91987 28.2508 22.2223
588 11.1399 26.6865 22.2223
589 11.1399 28.2508 19.9934
590 13.3599 26.6865 19.9934
591 13.3599 28.2507 17.7645
592 15.5799 26.6865 17.7645
593 15.5799 28.2507 15.5356
594 17.7999 26.6864 15.5356
595 17.7999 28.2507 13.3066
596 20.0198 26.6865 13.3066
597 20.0198 28.2508 11.0776
598 22.2397 26.6866 11.0776
599 22.2397 28.2509 8.84873
600 24.4596 26.6868 8.84891
601 24.4597 28.2512 6.62
1605 24.4597 4.78731 17.7644
1606 24.4597 6.35158 15.5356
604 11.1398 28.2508 24.4512
605 13.3598 26.6866 24.4512
606 13.3598 28.2508 22.2223
607 15.5798 26.6865 22.2223
608 15.5799 28.2507 19.9934
609 17.7998 26.6865 19.9934
610 17.7999 28.2506 17.7645
611 20.0198 26.6864 17.7645
612 20.0198 28.2506 15.5355
613 22.2398 26.6864 15.5355
614 22.2397 28.2507 13.3066
615 24.4597 26.6865 13.3066
616 24.4597 28.2509 11.0777
1724 11.1398 3.22296 24.4511
618 15.5798 28.2508 24.4512
619 17.7998 26.6865 24.4512
620 17.7998 28.2508 22.2223
621 20.0198 26.6865 22.2223
622 20.0198 28.2507 19.9934
623 22.2398 26.6864 19.9934
624 22.2398 28.2506 17.7644
625 24.4597 26.6864 17.7645
626 24.4597 28.2507 15.5355
1725 13.3598 1.65874 24.4511
628 20.0197 28.2508 24.4512
629 22.2397 26.6865 24.4512
630 22.2397 28.2507 22.2223
631 24.4597 26.6865 22.2223
632 24.4597 28.2507 19.9934
1502 11.14 4.78717 4.39103
634 24.4597 28.2508 24.4512
1501 8.92005 6.3514 4.39107
1500 8.9201 4.78719 6.61992
1814 24.4598 37.6361 11.078
1499 6.70009 6.35142 6.61998
1498 6.7001 4.7872 8.84883
640 2.26005 23.558 4.39081
1813 22.2398 37.6361 13.3068
1812 20.0198 37.6361 15.5356
1497 4.48009 6.35144 8.84888
1496 4.48007 4.78721 11.0778
645 2.26008 23.558 8.84868
646 2.26006 25.1222 6.61978
647 4.48002 23.558 6.61989
648 4.48001 25.1223 4.391
649 6.69997 23.558 4.39115
1811 17.7998 37.6361 17.7643
1810 15.5798 0.0945054 19.9932
1495 2.26007 6.35146 11.0778
1494 2.26004 4.78722 13.3067
654 2.26005 23.558 13.3065
655 2.26007 25.1222 11.0776
656 4.48006 23.558 11.0777
657 4.48005 25.1222 8.84882
658 6.70004 23.558 8.84894
659 6.70001 25.1223 6.62005
660 8.91999 23.558 6.6201
661 8.91995 25.1223 4.39123
662 11.1399 23.558 4.3911
1809 13.3598 0.0945262 22.2221
1808 11.1398 0.0945201 24.4511
1608 20.0197 6.35139 24.4511
1609 22.2397 4.78718 24.4511
667 2.26003 23.558 17.7643
668 2.26004 25.1222 15.5354
669 4.48002 23.558 15.5355
670 4.48005 25.1223 13.3066
671 6.70006 23.558 13.3067
672 6.70005 25.1222 11.0778
673 8.92004 23.558 11.0779
674 8.92002 25.1223 8.849
675 11.14 23.558 8.84895
676 11.14 25.1223 6.62005
677 13.3599 23.558 6.61985
678 13.3599 25.1223 4.39093
679 15.5799 23.5581 4.39074
1726 13.3598 3.22296 22.2221
1806 24.4598 0.0945606 6.62018
1727 15.5798 1.65874 22.2221
1489 6.70011 4.78718 4.39105
684 2.25998 23.558 22.2222
685 2.26 25.1223 19.9933
686 4.47996 23.558 19.9933
687 4.47999 25.1223 17.7644
688 6.69996 23.558 17.7645
689 6.70001 25.1223 15.5356
690 8.92002 23.558 15.5357
691 8.92004 25.1222 13.3068
692 11.14 23.558 13.3068
693 11.14 25.1222 11.0779
694 13.36 23.558 11.0778
695 13.3599 25.1223 8.84884
696 15.5799 23.558 8.84868
697 15.5798 25.1223 6.61972
698 17.7997 23.5581 6.6197
699 17.7998 25.1224 4.39076
700 20.0198 23.5582 4.39098
1805 22.2398 0.0945275 8.84908
1804 20.0199 37.6361 11.0779
703 2.25998 25.1222 24.4512
704 4.47992 23.558 24.4511
705 4.47993 25.1223 22.2222
706 6.6999 23.558 22.2222
707 6.69992 25.1223 19.9934
708 8.91991 23.558 19.9934
709 8.91996 25.1223 17.7645
710 11.14 23.558 17.7646
711 11.14 25.1222 15.5357
712 13.36 23.558 15.5357
713 13.36 25.1222 13.3067
714 15.5799 23.558 13.3066
715 15.5799 25.1223 11.0777
716 17.7998 23.558 11.0776
717 17.7998 25.1223 8.84864
718 20.0197 23.5581 8.8487
719 20.0197 25.1225 6.6198
720 22.2396 23.5582 6.62009
721 22.2397 25.1225 4.39127
722 24.4597 23.5582 4.39176
1803 17.7999 37.6361 13.3067
1802 15.5799 37.6361 15.5355
725 6.69989 25.1223 24.4511
726 8.91986 23.558 24.4511
727 8.91987 25.1223 22.2223
728 11.1399 23.5581 22.2223
729 11.1399 25.1223 19.9934
730 13.3599 23.558 19.9935
731 13.36 25.1222 17.7646
732 15.5799 23.558 17.7645
733 15.5799 25.1222 15.5356
734 17.7999 23.558 15.5355
735 17.7999 25.1222 13.3066
736 20.0198 23.558 13.3066
737 20.0197 25.1223 11.0776
738 22.2397 23.5581 11.0777
739 22.2396 25.1225 8.84885
740 24.4597 23.5582 8.8491
741 24.4597 25.1226 6.62029
1488 4.48009 6.35143 4.39113
1487 4.48011 4.7872 6.62001
744 11.1398 25.1223 24.4512
745 13.3598 23.5581 24.4512
746 13.3598 25.1223 22.2223
747 15.5798 23.558 22.2223
748 15.5799 25.1222 19.9935
749 17.7999 23.558 19.9934
750 17.7999 25.1222 17.7645
751 20.0198 23.558 17.7645
752 20.0198 25.1222 15.5355
753 22.2398 23.558 15.5355
754 22.2397 25.1223 13.3066
755 24.4597 23.5581 13.3066
756 24.4597 25.1224 11.0778
1486 2.26009 6.35145 6.62003
758 15.5798 25.1223 24.4512
759 17.7998 23.5581 24.4512
760 17.7998 25.1223 22.2223
761 20.0198 23.558 22.2223
762 20.0198 25.1222 19.9934
763 22.2398 23.558 19.9934
764 22.2398 25.1222 17.7645
765 24.4597 23.558 17.7644
766 24.4597 25.1222 15.5355
1485 2.26009 4.78722 8.84892
768 20.0197 25.1223 24.4512
769 22.2397 23.558 24.4512
770 22.2397 25.1223 22.2223
771 24.4597 23.558 22.2223
772 24.4597 25.1222 19.9934
1610 22.2397 6.35146 22.2222
774 24.4597 25.1223 24.4513
1611 24.4597 4.78723 22.2222
1728 15.5798 3.22298 19.9932
1801 13.3598 37.6361 17.7643
1729 17.7998 1.65874 19.9932
1480 2.2601 4.7872 4.3912
780 2.26006 20.4296 4.39077
1800 11.1398 0.0945249 19.9932
1799 8.91986 0.0945214 22.2222
1612 24.4597 6.35153 19.9933
1614 24.4596 6.35141 24.4511
785 2.26007 20.4296 8.84866
786 2.26007 21.9938 6.61973
787 4.48003 20.4296 6.61986
788 4.48 21.9938 4.39096
789 6.69997 20.4296 4.39113
1798 6.69992 0.0945135 24.4513
1796 22.2398 0.09456 4.39123
1730 17.7998 3.223 17.7643
1717 20.0199 3.22302 11.0779
794 2.26006 20.4296 13.3065
795 2.26007 21.9938 11.0776
796 4.48006 20.4296 11.0777
797 4.48005 21.9938 8.84879
798 6.70004 20.4296 8.84891
799 6.7 21.9938 6.62003
800 8.92 20.4296 6.62009
801 8.91996 21.9938 4.39119
802 11.1399 20.4296 4.39106
1795 20.0199 0.0945454 6.62016
1794 17.8 37.6361 8.849
1620 2.26011 1.65874 4.39123
1474 24.4597 9.47987 24.4512
807 2.26002 20.4296 17.7643
808 2.26005 21.9938 15.5354
809 4.48003 20.4296 15.5355
810 4.48005 21.9938 13.3066
811 6.70005 20.4296 13.3067
812 6.70006 21.9938 11.0778
813 8.92006 20.4296 11.0779
814 8.92003 21.9938 8.84899
815 11.14 20.4296 8.84893
816 11.14 21.9938 6.62
817 13.3599 20.4296 6.61982
818 13.3599 21.9938 4.39087
819 15.5799 20.4296 4.39073
1793 15.58 37.6361 11.0778
1792 13.36 37.6361 13.3066
1716 20.0199 1.65874 13.3068
1472 24.4597 9.48002 19.9934
824 2.25999 20.4296 22.2222
825 2.26 21.9938 19.9933
826 4.47995 20.4296 19.9933
827 4.47999 21.9938 17.7644
828 6.69998 20.4296 17.7645
829 6.70002 21.9938 15.5356
830 8.92002 20.4296 15.5357
831 8.92005 21.9938 13.3068
832 11.14 20.4296 13.3068
833 11.14 21.9938 11.0779
834 13.36 20.4296 11.0778
835 13.3599 21.9938 8.8488
836 15.5799 20.4296 8.84867
837 15.5798 21.9938 6.61969
838 17.7998 20.4296 6.61965
839 17.7998 21.9938 4.39074
840 20.0199 20.4296 4.39095
1791 11.1399 37.6361 15.5354
1790 8.91989 0.0945211 17.7644
843 2.25998 21.9938 24.4511
844 4.47993 20.4296 24.4511
845 4.47993 21.9938 22.2222
846 6.69989 20.4296 22.2222
847 6.69993 21.9938 19.9933
848 8.91992 20.4296 19.9934
849 8.91997 21.9938 17.7645
850 11.14 20.4296 17.7646
851 11.14 21.9938 15.5357
852 13.36 20.4296 15.5357
853 13.36 21.9938 13.3067
854 15.5799 20.4296 13.3066
855 15.5799 21.9938 11.0777
856 17.7998 20.4296 11.0776
857 17.7998 21.9938 8.84864
858 20.0197 20.4296 8.84872
859 20.0197 21.9939 6.61984
860 22.2397 20.4296 6.62023
861 22.2398 21.9939 4.39134
862 24.4598 20.4296 4.3919
1789 6.6999 0.0945144 19.9934
1788 4.47995 0.0945121 22.2224
865 6.69988 21.9938 24.4511
866 8.91984 20.4296 24.4511
867 8.91987 21.9938 22.2223
868 11.1399 20.4296 22.2223
869 11.1399 21.9938 19.9934
870 13.3599 20.4296 19.9935
871 13.36 21.9938 17.7646
872 15.5799 20.4296 17.7645
873 15.58 21.9938 15.5356
874 17.7999 20.4296 15.5355
875 17.7999 21.9938 13.3066
876 20.0198 20.4296 13.3066
877 20.0197 21.9938 11.0776
878 22.2397 20.4296 11.0777
879 22.2396 21.9939 8.84892
880 24.4597 20.4296 8.8492
881 24.4597 21.9939 6.62055
1471 24.4597 7.91571 22.2222
1470 22.2397 9.47993 22.2223
884 11.1398 21.9938 24.4512
885 13.3598 20.4296 24.4512
886 13.3599 21.9938 22.2223
887 15.5798 20.4296 22.2223
888 15.5799 21.9938 19.9935
889 17.7999 20.4296 19.9934
890 17.7999 21.9938 17.7645
891 20.0198 20.4296 17.7645
892 20.0198 21.9938 15.5355
893 22.2398 20.4296 15.5355
894 22.2397 21.9938 13.3066
895 24.4597 20.4296 13.3066
896 24.4597 21.9939 11.0779
1469 22.2397 7.91563 24.4511
898 15.5798 21.9938 24.4512
899 17.7998 20.4296 24.4512
900 17.7998 21.9938 22.2223
901 20.0198 20.4296 22.2223
902 20.0198 21.9938 19.9934
903 22.2398 20.4296 19.9934
904 22.2398 21.9938 17.7644
905 24.4597 20.4296 17.7644
906 24.4597 21.9938 15.5355
1468 20.0197 9.47986 24.4512
908 20.0198 21.9938 24.4512
909 22.2397 20.4296 24.4512
910 22.2398 21.9938 22.2223
911 24.4597 20.4296 22.2223