LAMMPS data file via write_data, version 2 Aug 2023, timestep = 1263, units = metal

7201 atoms
3 atom types

0.03967529269613951 53.319524482883374 xlo xhi
0.09418885761365867 37.63646314238644 ylo yhi
-22.325751869694773 75.68495164527408 zlo zhi

Masses

1 183.84
2 1.008
3 4.0026

Atoms # atomic

1 1 2.2594228105613565 36.07227069188258 0.005191997022305124 0 0 0
2 1 6.699134745996385 36.072376723159586 0.005187459206253686 0 0 0
3 1 11.13883453541405 36.072574041566895 0.0052180476568659115 0 0 0
4 1 15.578606211923466 36.072845028748745 0.005292025230701764 0 0 0
5 1 20.01856264967869 36.073135468292904 0.0053543337171756645 0 0 0
6 1 24.458869516471783 36.073323969760146 0.005332775264321922 0 0 0
1703 1 24.459212788314083 3.222268361876967 2.1644934669115075 0 0 0
8 1 2.259387674016311 32.94379592801567 0.005187261715168251 0 0 0
9 1 4.479259489349237 34.508097909119606 0.005186030582867406 0 0 0
10 1 6.69904210853288 32.943986082471 0.005191184508279143 0 0 0
11 1 8.918915659165014 34.50831589824969 0.0052041645566084085 0 0 0
12 1 11.138587550630863 32.94434943681291 0.005250769919410302 0 0 0
13 1 13.358541836519784 34.50866875865625 0.005274184555560948 0 0 0
14 1 15.578032322391444 32.944898174314375 0.0053424642092572226 0 0 0
15 1 17.798231229013695 34.50912280783878 0.005352238002933535 0 0 0
16 1 20.017600890926158 32.945596442833114 0.005315849470400931 0 0 0
17 1 22.23823422038526 34.50956790274085 0.005312023609777609 0 0 0
18 1 24.457868612650277 32.94626477812612 0.005068929609967612 0 0 0
1682 1 22.239108476430133 1.6584506131039418 2.164496203076118 0 0 0
20 1 2.2593419239733987 29.815289198931445 0.005181274430358614 0 0 0
21 1 4.479191178626091 31.379633170539122 0.005182416357402307 0 0 0
22 1 6.698919033229059 29.81551773083566 0.005195801449414166 0 0 0
23 1 8.918728398932796 31.379943972813525 0.005221970327861273 0 0 0
24 1 11.13823225317487 29.815962012501966 0.005285178265983075 0 0 0
25 1 13.358041941097502 31.38048210000453 0.005319776840166085 0 0 0
26 1 15.577121535569326 29.816728271494025 0.005323091985658615 0 0 0
27 1 17.79716852013465 31.38130823640757 0.0053222668835441805 0 0 0
28 1 20.01589343908867 29.818082696536834 0.004955278077824736 0 0 0
29 1 22.236757643217935 31.382432809715656 0.004979717518447111 0 0 0
30 1 24.456021662227577 29.81991425343262 0.004060579977464825 0 0 0
1681 1 20.01892187451843 3.2223036900727067 2.1644775912114973 0 0 0
32 1 2.2593011316740665 26.686746721075718 0.0051748155728744225 0 0 0
33 1 4.479117480785092 28.251112131997367 0.005178533204790931 0 0 0
34 1 6.698799441777302 26.68695299329478 0.0051978943598727815 0 0 0
35 1 8.918514339918294 28.25143318360815 0.005239686009538737 0 0 0
36 1 11.137867202304873 26.68733437945222 0.005303737931768858 0 0 0
37 1 13.357405662098149 28.25201713311664 0.005328087550267289 0 0 0
38 1 15.5761004204616 26.688145779085563 0.005143795541286838 0 0 0
39 1 17.795712393776746 28.253199793764722 0.005002927096251421 0 0 0
40 1 20.013768435510375 26.690069483468566 0.003945236596923803 0 0 0
41 1 22.234307629181394 28.255538093460114 0.003832962450603881 0 0 0
42 1 24.452756807813653 26.694382671480074 0.0010470412725343502 0 0 0
1661 1 17.798907456565217 1.6584454167427005 2.164426374235322 0 0 0
44 1 2.259274217667961 23.558175739912237 0.005170404636989069 0 0 0
45 1 4.479054812087494 25.122534354618132 0.005173674920055228 0 0 0
46 1 6.6987025870978 23.558300286453342 0.005198179256076382 0 0 0
47 1 8.918309261670801 25.122771851291745 0.005249314360594932 0 0 0
48 1 11.137573201233883 23.558516697865866 0.005308574927243841 0 0 0
49 1 13.356874230649233 25.123196135630412 0.005298942881230457 0 0 0
50 1 15.575485207521186 23.55898297211522 0.005002091469762435 0 0 0
51 1 17.794323387954577 25.124309821648083 0.004327749237953612 0 0 0
52 1 20.01228843537343 23.56021590659858 0.0022947132051765154 0 0 0
53 1 22.231214213502565 25.127746799934013 0.001438149841662815 0 0 0
54 1 24.44822317341855 23.567478409346535 -0.005188520018234263 0 0 0
1660 1 15.578843983924827 3.2223985819772656 2.1643813947363637 0 0 0
56 1 2.2592638331986423 20.429587401044294 0.005168689177270464 0 0 0
57 1 4.4790192203171735 21.99390903786106 0.005170483293564392 0 0 0
58 1 6.6986641914307725 20.429587448774907 0.005197378908582312 0 0 0
59 1 8.918177426066473 21.993995846029165 0.005253683310152049 0 0 0
60 1 11.137456170951673 20.42958415261514 0.005308417376978055 0 0 0
61 1 13.35655864115289 21.99413616890739 0.0052682465862015655 0 0 0
62 1 15.575305489532806 20.429581928815693 0.0049612472094355976 0 0 0
63 1 17.793766680559198 21.994557523201358 0.00415273971066252 0 0 0
64 1 20.01156877856142 20.429592588074296 0.0024901076567655565 0 0 0
65 1 22.231808693285792 21.994516835171126 -0.0005352355267143434 0 0 0
66 1 24.46526910106313 20.429607830421553 0.01786736583873824 0 0 0
1644 1 13.35891852753974 1.6584455524145105 2.1643181939073717 0 0 0
68 1 2.2592724310514694 17.300999080416425 0.005170548263358724 0 0 0
69 1 4.479018177614775 18.865266564548964 0.0051705155458951725 0 0 0
70 1 6.698700293918243 17.30087438636861 0.005198573280368165 0 0 0
71 1 8.918175972187331 18.865176550403092 0.005253976844537125 0 0 0
72 1 11.137570080237088 17.300651603183155 0.005309592694947037 0 0 0
73 1 13.356557336701846 18.865028383344526 0.0052686658595852785 0 0 0
74 1 15.575484878218372 17.30018149974786 0.005003065297958596 0 0 0
75 1 17.793767151567625 18.86461218973675 0.004154321355061421 0 0 0
76 1 20.012289811828655 17.298965300472315 0.002299459448244666 0 0 0
77 1 22.231813676186263 18.86468153485364 -0.000526692138579835 0 0 0
78 1 24.448211867031617 17.2917279153848 -0.005177922437767171 0 0 0
1643 1 11.138968699524671 3.222524213282564 2.1642765650629285 0 0 0
80 1 2.2592978950761893 14.172427973767432 0.005175023774637016 0 0 0
81 1 4.479051995285142 15.73664062080141 0.005173833928644958 0 0 0
82 1 6.698795467798274 14.172220768073142 0.005198386707673868 0 0 0
83 1 8.918305073503618 15.73639988513842 0.0052502561367251625 0 0 0
84 1 11.13786228993311 14.171834142887622 0.005305031682784445 0 0 0
85 1 13.356870454475883 15.735968912435688 0.005300287799059215 0 0 0
86 1 15.576099543715326 14.171020310622339 0.00514549504477902 0 0 0
87 1 17.794322684144063 15.734861491406082 0.00432941093473532 0 0 0
88 1 20.013771561721047 14.169111646531643 0.003949838975571318 0 0 0
89 1 22.231209920040918 15.731446933050677 0.0014484794070712182 0 0 0
90 1 24.452753401330735 14.164824751816484 0.0010627100886559577 0 0 0
1631 1 8.919093523957496 1.6584474396229292 2.164237691622985 0 0 0
92 1 2.259338182397167 11.043885328700823 0.0051815081335381125 0 0 0
93 1 4.479113771095831 12.608062180677164 0.005178739704032151 0 0 0
94 1 6.698914449816854 11.043654790726048 0.005196335372693501 0 0 0
95 1 8.9185092573167 12.607738068843709 0.005240869575755551 0 0 0
96 1 11.138226376206804 11.043206091794918 0.005286818211456315 0 0 0
97 1 13.357401260227874 12.607148878130303 0.005329850208985923 0 0 0
98 1 15.577117991174362 11.04243773254919 0.005324705929610569 0 0 0
99 1 17.79571231882422 12.605971056787535 0.005004851161056427 0 0 0
100 1 20.015893757341345 11.041096620095056 0.0049581831406047445 0 0 0
101 1 22.23430679785234 12.603653993016954 0.003839500605591916 0 0 0
102 1 24.456014091805937 11.039288155904313 0.004069660956728613 0 0 0
1630 1 6.699201701569664 3.2226248529481407 2.1642154939983143 0 0 0
104 1 2.2593843949436 7.915378510848626 0.005187428373471347 0 0 0
105 1 4.479187391944414 9.479540257119615 0.005182576323292735 0 0 0
106 1 6.699038362506853 7.9151855607107615 0.005191485405917605 0 0 0
107 1 8.91872346390009 9.479226299157018 0.0052228686668956345 0 0 0
108 1 11.138582878386565 7.914818369599599 0.005251950105550731 0 0 0
109 1 13.358036956381708 9.478683860322906 0.005321367663076641 0 0 0
110 1 15.578028515625475 7.914267253007878 0.0053437038378712975 0 0 0
111 1 17.797166502526395 9.477859908288774 0.005323786046069918 0 0 0
112 1 20.0175989345043 7.91357640749237 0.0053175473633975566 0 0 0
113 1 22.23675621610347 9.476754426101934 0.004983350789958844 0 0 0
114 1 24.457864347225097 7.912929624933418 0.0050722310968622265 0 0 0
1622 1 4.479336202063452 1.6584491737938563 2.1642006571495958 0 0 0
116 1 2.259420874287673 4.786903679377566 0.005192098573516974 0 0 0
117 1 4.479256802533582 6.351074942708182 0.005186146674930531 0 0 0
118 1 6.699132579774583 4.786794153702258 0.0051876341154978535 0 0 0
119 1 8.918912148930099 6.350853443034715 0.00520467592628144 0 0 0
120 1 11.138831856590947 4.786593032460281 0.005218622889147895 0 0 0
121 1 13.358538242771148 6.350497277969021 0.005275144991185687 0 0 0
122 1 15.578604097121538 4.786320427898894 0.005292417048773297 0 0 0
123 1 17.798228794303682 6.350044005563513 0.005353025858785449 0 0 0
124 1 20.018561052343927 4.78603487774966 0.005354892012475357 0 0 0
125 1 22.238231923839965 6.349611372145145 0.0053137039761538 0 0 0
126 1 24.458866960594996 4.785862066329674 0.005334044148424699 0 0 0
1621 1 2.2594515912290336 3.2226790493858264 2.164193311312645 0 0 0
128 1 2.259435795048556 1.6584500336494459 0.005193575889030257 0 0 0
129 1 4.479299566511139 3.222652313661 0.0051874687677844426 0 0 0
130 1 6.699169866186404 1.658448173951431 0.005185591134048893 0 0 0
131 1 8.919022363912767 3.222571964491653 0.005192426397212557 0 0 0
132 1 11.138922116924 1.6584462374566382 0.005204761670248122 0 0 0
133 1 13.358802818069902 3.2224501096604867 0.005236039846129953 0 0 0
134 1 15.578794929863884 1.6584454583531913 0.00526524705730796 0 0 0
135 1 17.79873952751299 3.2223090090247637 0.00531240802267338 0 0 0
136 1 20.018868341993056 1.6584479225242992 0.00534167681108315 0 0 0
137 1 22.238916012910018 3.222199912686801 0.005365234280445501 0 0 0
138 1 24.45919335822508 1.6584546734113437 0.005373986897543554 0 0 0
1563 1 24.458713527302784 6.349844738680662 2.1644065730873745 0 0 0
140 1 4.479300559547372 0.09424594353364313 0.005187421786140865 0 0 0
141 1 8.91902366927919 0.09432248192024417 0.005192216576516464 0 0 0
142 1 13.358804184646338 0.09444112869266519 0.005235733589391653 0 0 0
143 1 17.798740311882995 0.09458346017035005 0.005312354921932393 0 0 0
144 1 22.238916932597387 0.09470177927780554 0.005364863524116391 0 0 0
1542 1 22.238848068883012 4.786102882226678 2.164493917483007 0 0 0
1541 1 20.0184336526383 6.350045717242849 2.1645019203113374 0 0 0
1521 1 17.798700321818473 4.786262536586262 2.164460390509662 0 0 0
1520 1 15.578509720904604 6.350368873048799 2.1644412766627688 0 0 0
3802 1 26.676086166022657 22.02209715733304 -0.04207187120509258 0 0 0
1504 1 13.358789316845305 4.786488830944394 2.1643458577407055 0 0 0
3907 1 26.679365111676155 0.09473455190903479 0.0053551086249182785 0 0 0
1503 1 11.138788958740818 6.3507189203716985 2.1643098238226273 0 0 0
1491 1 8.919032472441907 4.78672001641663 2.164246826710707 0 0 0
1490 1 6.699126290105243 6.350997057363224 2.164221015741031 0 0 0
3877 1 26.67885289285251 6.34940359271917 0.005195877187990753 0 0 0
3892 1 26.679362689186927 3.22218425397125 0.0053555237523659665 0 0 0
1482 1 4.47931197568609 4.786868810100897 2.1642004634593968 0 0 0
148 1 4.4793138781747 36.07230395298509 2.164200388141924 0 0 0
153 1 8.919034894533011 36.072449141818744 2.1642464599281612 0 0 0
160 1 13.358792415891036 36.072676571807186 2.164345091767477 0 0 0
169 1 17.79870189322756 36.07290389692097 2.164460178216525 0 0 0
180 1 22.23885015726577 36.0730737119393 2.1644938407941225 0 0 0
1481 1 2.259421873365966 6.351145884704107 2.1641909500820806 0 0 0
1423 1 24.45774079333695 9.477227841335473 2.163952191423516 0 0 0
221 1 2.259424686933394 34.508028480470365 2.1641908843689666 0 0 0
222 1 4.479249248090812 32.94385811460258 2.164199793523078 0 0 0
230 1 6.699129476793594 34.50817421774023 2.1642207177029515 0 0 0
231 1 8.918869004080838 32.94411834186373 2.164267186982356 0 0 0
243 1 11.138793033803918 34.50844840031104 2.1643088885959383 0 0 0
244 1 13.358421540547193 32.94453053308519 2.1644068952982436 0 0 0
260 1 15.578512861758533 34.508796736330666 2.1644404465417746 0 0 0
261 1 17.79806160522371 32.9449989019831 2.1645048444184414 0 0 0
281 1 20.01843541961865 34.509125974888356 2.1645018256251847 0 0 0
282 1 22.238064948287363 32.94545353598875 2.1643821555670875 0 0 0
303 1 24.458719325296574 34.50934074105206 2.164405382356586 0 0 0
1402 1 22.238059498221105 7.9137252478354485 2.1643834262781922 0 0 0
1401 1 20.017415042179213 9.477829136104841 2.164384873216999 0 0 0
361 1 2.2593793592421236 31.379534580855307 2.164186386247377 0 0 0
362 1 4.479168699800842 29.815362131403038 2.1641986522536376 0 0 0
370 1 6.699007954378256 31.379739268252127 2.1642276001992626 0 0 0
371 1 8.918650678177961 29.815669538118634 2.1642901941764343 0 0 0
383 1 11.138476353307448 31.380131155812503 2.1643533174145366 0 0 0
384 1 13.357862801548755 29.816188601689245 2.164453328374642 0 0 0
400 1 15.577842038639872 31.380677640177346 2.1644931138474455 0 0 0
401 1 17.79695749324051 29.816951186201784 2.1644007598966963 0 0 0
421 1 20.017419342663008 31.381343302530432 2.1643835517901273 0 0 0
422 1 22.236721774877683 29.817942391503788 2.1638169202990922 0 0 0
443 1 24.457750207329322 31.38196479427889 2.163946360961554 0 0 0
1381 1 17.79805926225747 7.914169251525594 2.164505234345129 0 0 0
1380 1 15.5778384809029 9.478488368745657 2.164494187001462 0 0 0
501 1 2.2593288820940214 28.251010339234927 2.1641818243558886 0 0 0
502 1 4.47908780308244 26.68681425663275 2.164196848260722 0 0 0
510 1 6.698869772553295 28.251221039601628 2.1642352880331863 0 0 0
511 1 8.918422486379272 26.687081711834452 2.1643081952074406 0 0 0
523 1 11.138108203618158 28.25161604589454 2.1643868072980994 0 0 0
524 1 13.357335343540772 26.687518098943393 2.164431823679262 0 0 0
540 1 15.576902083353106 28.252311779682923 2.1644249870138825 0 0 0
541 1 17.795416603812438 26.688626412646347 2.163975309335049 0 0 0
561 1 20.015768326317357 28.2535235444039 2.1638319775005073 0 0 0
562 1 22.234324866000193 26.69096780093549 2.1622962941454484 0 0 0
583 1 24.456260756049517 28.255085138574085 2.162402319962542 0 0 0
1364 1 13.358416785899182 7.914635481072053 2.16440813802664 0 0 0
1363 1 11.13847117895878 9.479036975541788 2.1643546505061506 0 0 0
641 1 2.259290410982237 25.122455038997312 2.164178146779348 0 0 0
642 1 4.479029757846978 23.558215969609314 2.164195687719172 0 0 0
650 1 6.6987487670509305 25.122612726047677 2.1642394659740756 0 0 0
651 1 8.918249947887414 23.558367087104216 2.1643172738437633 0 0 0
663 1 11.137789846401631 25.12289116653699 2.1643939345329066 0 0 0
664 1 13.356959934211911 23.558614156407128 2.164386526172101 0 0 0
680 1 15.57630927664106 25.123365842301208 2.164215348694687 0 0 0
681 1 17.795054853857938 23.55918912350195 2.163399032403075 0 0 0
701 1 20.01261705511045 25.125855874645243 2.1626861910732624 0 0 0
702 1 22.225788616179393 23.566156027766212 2.160065516479014 0 0 0
723 1 24.45330093582547 25.130399121710052 2.158700949523447 0 0 0
1351 1 8.91886446813556 7.91505144823049 2.1642679745405755 0 0 0
1350 1 6.699003775109199 9.479433122267281 2.1642280395736635 0 0 0
781 1 2.259267377871398 21.993879348610474 2.164175617500325 0 0 0
782 1 4.479008579313584 20.429587901877017 2.1641952348324174 0 0 0
790 1 6.698670970016834 21.993939164956366 2.164242289417799 0 0 0
791 1 8.918180789074317 20.429586541097283 2.1643178994556727 0 0 0
1797 1 24.459214632466235 0.09464043066032736 2.1644933927050793 0 0 0
803 1 11.137599475147402 21.994036911106335 2.1643946449208165 0 0 0
804 1 13.356828752363485 20.42958272072956 2.164361575478788 0 0 0
820 1 15.57595812447521 21.994213302754673 2.1641047630391066 0 0 0
821 1 17.794882841172665 20.429585115620846 2.1632945080855643 0 0 0
841 1 20.013374249573854 21.994943697897245 2.1617486836829314 0 0 0
842 1 22.229382265287523 20.429590443446756 2.160394700004055 0 0 0
863 1 24.425909002505072 22.019224980665598 2.1580947019587033 0 0 0
1342 1 4.4792457869345155 7.915315100999145 2.1641999575237234 0 0 0
1341 1 2.2593756374368965 9.47963995004443 2.164186478650768 0 0 0
921 1 2.259266434021705 18.865295553763275 2.164175654731608 0 0 0
1786 1 20.018922484580717 0.09459162937061905 2.1644776711656557 0 0 0
922 1 4.47902764725329 17.300959390851887 2.164195869813892 0 0 0
930 1 6.698669668108222 18.865235676267936 2.1642424330021854 0 0 0
931 1 8.918247125489145 17.300805310431812 2.164317948421682 0 0 0
943 1 11.137597367651939 18.865131959489755 2.1643950103998795 0 0 0
944 1 13.356958204648828 17.300551154776382 2.16438737457923 0 0 0
960 1 15.575956710155452 18.864951284304954 2.164105331020239 0 0 0
961 1 17.79505435589782 17.299983104858455 2.1633999470107126 0 0 0
981 1 20.01337113648087 18.8642407029007 2.1617524894603055 0 0 0
982 1 22.225798034905928 17.293050175196218 2.160074660496285 0 0 0
1776 1 15.578845556894475 0.09449139224648882 2.1643810611390086 0 0 0
1003 1 24.425899792089478 18.83999101878842 2.158103102624473 0 0 0
1283 1 24.456256603115435 12.60412127945556 2.162411876780244 0 0 0
1262 1 22.23671553240287 11.041240484028421 2.1638226530159255 0 0 0
1061 1 2.2592876701863966 15.736719815175896 2.1641782480741916 0 0 0
1062 1 4.47908430120179 14.172360474720747 2.1641970812997675 0 0 0
1070 1 6.698745567142141 15.736561799295304 2.164239964669004 0 0 0
1071 1 8.918417449641286 14.1720899776814 2.16430916658557 0 0 0
1768 1 11.138970192682303 0.09436872823066977 2.1642762394753357 0 0 0
1083 1 11.137786022615046 15.736278162582222 2.1643951014366345 0 0 0
1084 1 13.357330889619586 14.17164804083816 2.1644330616662106 0 0 0
1100 1 15.576307885759396 15.735799394813702 2.16421633131657 0 0 0
1101 1 17.795412901755846 14.170542886470091 2.1639772679386824 0 0 0
1121 1 20.01261765737225 15.733325670478967 2.1626909676726798 0 0 0
1762 1 6.69920275181677 0.09427180130791157 2.1642154100782496 0 0 0
1122 1 22.234322504858422 14.168231130960791 2.1623056910067135 0 0 0
1143 1 24.453291476054154 15.728802028752863 2.1587166353257348 0 0 0
1261 1 20.015764790192364 12.605653066365056 2.163835316484014 0 0 0
1758 1 2.2594525610994145 0.0942210179926164 2.16419329250533 0 0 0
1241 1 17.796954744512334 11.042217208337396 2.1644019172496165 0 0 0
1201 1 2.2593250758767 12.608164297925878 2.1641819360243018 0 0 0
1202 1 4.479164673314451 11.043811840934298 2.164198905484993 0 0 0
1210 1 6.698865217913077 12.607952179341124 2.1642358989042823 0 0 0
1211 1 8.918645428854026 11.04350133356258 2.1642912862797647 0 0 0
1223 1 11.138102467938486 12.607552079334274 2.1643884733220706 0 0 0
1224 1 13.357858074833917 11.042977573019852 2.1644548045020513 0 0 0
1240 1 15.576899638706376 12.60685412648536 2.164426218968953 0 0 0
3772 1 26.676180164968397 28.258453482073374 0.0025873495647172986 0 0 0
3787 1 26.673576193291492 25.137001875583277 -0.00404568511422039 0 0 0
1144 1 26.67623783054222 14.167321349210726 2.159678819806355 0 0 0
3817 1 26.676095850872844 18.83712122437199 -0.0420668029905038 0 0 0
3832 1 26.67357096675668 15.72221951643911 -0.004028322643054219 0 0 0
3847 1 26.67616559797821 12.600760042908556 0.0026034724553837345 0 0 0
1004 1 26.669767486982796 17.297647354543777 2.145495282867507 0 0 0
584 1 26.676245329051646 26.69189602278477 2.1596633658324307 0 0 0
864 1 26.525408391597725 20.42961383730437 2.045796532359845 0 0 0
724 1 26.669767729751214 23.561572510926442 2.145505862775305 0 0 0
1704 1 26.679473130140778 1.6584580429733433 2.164481487392174 0 0 0
1564 1 26.679254914489412 4.786074611455224 2.164438492057386 0 0 0
3742 1 26.67886079976212 34.509796644323096 0.005193542913460362 0 0 0
3757 1 26.6778509177776 31.383346440177068 0.004570780284089683 0 0 0
444 1 26.677751731536933 29.81870122793419 2.1631151116541014 0 0 0
1284 1 26.677739561165698 11.04051059821465 2.163126129715531 0 0 0
304 1 26.678659610121812 32.94570921112295 2.1641619010959388 0 0 0
1424 1 26.67864909962841 7.9134902097990985 2.164165422975032 0 0 0
3862 1 26.677839256171993 9.475861770898556 0.004578203777747163 0 0 0
191 1 26.679260102788273 36.073118075321105 2.1644381888314235 0 0 0
1598 1 15.579626981188833 6.351226556473029 24.45075509184575 0 0 0
1596 1 24.459505802537212 6.351234954633386 11.0775661715184 0 0 0
147 1 2.2594782222046685 36.07225468313333 4.3908023230433795 0 0 0
1595 1 24.459608715947834 4.7869992466119875 13.306471134483937 0 0 0
1594 1 22.239582924026756 6.351250808135302 13.306460214324433 0 0 0
150 1 2.2595640762234526 36.07223315096412 8.848589913543448 0 0 0
151 1 4.47944742144765 36.07226510015087 6.6197318041179605 0 0 0
152 1 6.699261205108787 36.072337878660036 4.39085688229438 0 0 0
1593 1 22.239629019794176 4.786991265262556 15.53533312548969 0 0 0
1592 1 20.019621556015583 6.351238980273662 15.535339521282435 0 0 0
155 1 2.259619742703573 36.07221906289211 13.306338419001994 0 0 0
156 1 4.479559282381193 36.07223357783246 11.077490148479281 0 0 0
157 1 6.699461018916413 36.072267444296834 8.848656780595498 0 0 0
158 1 8.919302017376447 36.07234190277038 6.619825008368711 0 0 0
159 1 11.139059948867745 36.07248439396184 4.390963235190179 0 0 0
1591 1 20.019630568857522 4.786978287724768 17.764188021352417 0 0 0
1590 1 17.79962759306274 6.351225215894764 17.76419555835779 0 0 0
162 1 2.259647701262503 36.072210354593075 17.76408500251355 0 0 0
163 1 4.479617178741271 36.07221761832018 15.535225398193514 0 0 0
164 1 6.699571126341903 36.072230519302934 13.306384701249513 0 0 0
165 1 8.919500771261246 36.07226124355066 11.077568381036027 0 0 0
166 1 11.139391245189842 36.07232670561401 8.848768769319358 0 0 0
167 1 13.359219675054185 36.07244370225676 6.619957621258091 0 0 0
168 1 15.578959057820866 36.07264551918788 4.39110003101641 0 0 0
1589 1 17.799625389246597 4.78696764111727 19.993037998906388 0 0 0
1588 1 15.57962380535274 6.351219257155519 19.993038294304924 0 0 0
171 1 2.2596606439093914 36.07220549382883 22.221840511561766 0 0 0
172 1 4.4796434014059505 36.07220916889503 19.99296897751023 0 0 0
173 1 6.699619585239849 36.07221554051644 17.764110069118086 0 0 0
174 1 8.91958897646094 36.072225782167685 15.535271730772486 0 0 0
175 1 11.139548845475552 36.07224901973815 13.306462282363189 0 0 0
176 1 13.35948888623406 36.0722956167846 11.07767447366546 0 0 0
177 1 15.579393066695966 36.072370766425266 8.848884414186113 0 0 0
178 1 17.799233999477543 36.07251064095369 6.620065193549102 0 0 0
179 1 20.01901502323725 36.072745312524795 4.391179132253192 0 0 0
1587 1 15.579623696906559 4.786964610703045 22.221889573324294 0 0 0
181 1 4.479655474457676 36.072204745482885 24.450724918827664 0 0 0
182 1 6.699641244912554 36.07220788452574 22.22185252742076 0 0 0
183 1 8.919623641926893 36.07221332053382 19.992992050639717 0 0 0
184 1 11.139605650784363 36.07222056085328 17.764150953370454 0 0 0
185 1 13.359589463618228 36.07223277217716 15.535335449183382 0 0 0
186 1 15.57956915910287 36.0722558160799 13.306539524765054 0 0 0
187 1 17.799527392309848 36.07228954981961 11.077738994308119 0 0 0
188 1 20.019446423181474 36.07235980156701 8.848918347305995 0 0 0
189 1 22.23933420437822 36.07249349126071 6.620059601633715 0 0 0
190 1 24.459220441059834 36.07276143202287 4.391144905011893 0 0 0
1586 1 13.359625020359266 6.3512210985124575 22.22188548626037 0 0 0
192 1 8.919639652785394 36.072206519883714 24.450735279999744 0 0 0
193 1 11.139627277157668 36.072210756211625 22.221871293015337 0 0 0
194 1 13.359617627701164 36.0722150598675 19.99302260174635 0 0 0
195 1 15.579615115639955 36.072217171527626 17.764191311057807 0 0 0
196 1 17.799615795397536 36.07221882385086 15.535370536247823 0 0 0
197 1 20.019605337887693 36.0722203000231 13.306541612615668 0 0 0
198 1 22.239566223499615 36.07223658178324 11.077699648639703 0 0 0
199 1 24.459505931079992 36.07229738926091 8.848845753001536 0 0 0
1585 1 13.359628867964483 4.786966803817432 24.450748551452783 0 0 0
201 1 13.359628909194676 36.07220783715201 24.450748349302483 0 0 0
202 1 15.579623702216846 36.07220981672357 22.221889223542586 0 0 0
203 1 17.79962525895133 36.072206491624584 19.99303750802501 0 0 0
204 1 20.019630346522476 36.07219544204815 17.76418722682794 0 0 0
205 1 22.23962860904576 36.072182467110835 15.535332470445331 0 0 0
206 1 24.459608383928018 36.07217572898859 13.306471311546753 0 0 0
1584 1 11.13963322833424 6.351226399920147 24.450744489233983 0 0 0
208 1 17.799623990957084 36.0722057036677 24.450754576798705 0 0 0
209 1 20.019623766667664 36.072201345310255 22.221886217817527 0 0 0
210 1 22.239624922895405 36.07219117116979 19.993017569873864 0 0 0
211 1 24.459621565140754 36.072177812252185 17.764146475501057 0 0 0
1599 1 17.799624025297813 4.786968879428543 24.45075482032062 0 0 0
213 1 22.239616618004305 36.07220128842387 24.450747138318864 0 0 0
214 1 24.459613142595362 36.0721961745972 22.22186999516643 0 0 0
1600 1 17.799626916246496 6.3512282815811165 22.221890919460925 0 0 0
1581 1 24.4592398824419 6.350866341327745 6.619928604422389 0 0 0
1580 1 24.459504391118593 4.786878477347266 8.848845464487654 0 0 0
1579 1 22.239382256526973 6.351064322073253 8.848822448588887 0 0 0
1578 1 22.23956603023644 4.78693626373266 11.077700006902576 0 0 0
220 1 2.25944152096876 32.94376869363417 4.39080284806075 0 0 0
1577 1 20.019500619030023 6.351144023669108 11.07769867497884 0 0 0
1576 1 20.019605368640445 4.786952062519258 13.306542383092493 0 0 0
1575 1 17.799571203922866 6.351178592555827 13.30654596025875 0 0 0
1574 1 17.799615709854727 4.7869541035388545 15.535371736730454 0 0 0
225 1 2.2595381600659854 32.943732889128114 8.84859809239591 0 0 0
226 1 2.2595092886647996 34.50799847924433 6.61970623020583 0 0 0
227 1 4.479396286834013 32.943790445118594 6.619741485185471 0 0 0
228 1 4.4793470798610775 34.508061980102234 4.390825554594617 0 0 0
229 1 6.699167328974714 32.94391854077917 4.390870133914558 0 0 0
1573 1 15.579598627454123 6.351193788508021 15.535370030795935 0 0 0
1572 1 15.579615074475903 4.786956601357874 17.76419200251882 0 0 0
1571 1 13.35960854088948 6.351206290017919 17.76418316293983 0 0 0
1570 1 13.35961755389503 4.786959237165316 19.993023005430864 0 0 0
234 1 2.259607296110591 32.94370861543785 13.306347634413058 0 0 0
235 1 2.2595882052351794 34.50797352196117 11.077469977625242 0 0 0
236 1 4.479532849580413 32.94373516452512 11.077505098589633 0 0 0
237 1 4.479494478342279 34.50800487904309 8.848623586174634 0 0 0
238 1 6.699405270143288 32.94379620973653 8.848679519180436 0 0 0
239 1 6.699337116726221 34.50807897582167 6.619779976254335 0 0 0
240 1 8.919190548496339 32.9439316579147 6.619856491401139 0 0 0
241 1 8.919091972860782 34.508231120073575 4.3909154888295605 0 0 0
242 1 11.13884850354616 32.94418621599201 4.391010386236737 0 0 0
1569 1 11.139618387508621 6.3512154928023286 19.993013378615714 0 0 0
1568 1 11.139627184487402 4.786963816199552 22.2218715356871 0 0 0
1567 1 8.919632292551091 6.3512236018790755 22.22186481352054 0 0 0
1566 1 8.91963960039592 4.786968206961634 24.45073538858115 0 0 0
247 1 2.259642582251678 32.943693838586235 17.7640914638562 0 0 0
248 1 2.2596328309875493 34.507957784779805 15.535214330155256 0 0 0
249 1 4.479606570910232 32.94370632712588 15.535237109020992 0 0 0
250 1 4.479586469259574 34.507972367551545 13.306363764020656 0 0 0
251 1 6.699550075838527 32.943731057271876 13.306405513586633 0 0 0
252 1 6.699510908180218 34.50800309501764 11.0775340471162 0 0 0
253 1 8.919455448163859 32.94378602412512 11.077601150615674 0 0 0
254 1 8.919387115755821 34.5080738318566 8.84872287989304 0 0 0
255 1 11.13929472025686 32.94389845253115 8.8488117130017 0 0 0
256 1 11.13918397052538 34.508215846834695 6.619909376669467 0 0 0
257 1 13.359017130548978 32.944114674739346 6.620012678738915 0 0 0
258 1 13.358869870030272 34.50846900676975 4.391062042495017 0 0 0
259 1 15.578587090545552 32.9444789449181 4.391159529374163 0 0 0
1565 1 6.699646456259982 6.3512289587466775 24.450731373163265 0 0 0
1718 1 22.239611968352307 1.6584492401034188 11.077743831282882 0 0 0
1719 1 22.239538553809727 3.2226424911927563 8.848922791304014 0 0 0
1562 1 24.45921742199021 4.786419803954726 4.391144518590177 0 0 0
264 1 2.259658735527803 32.94368553999182 22.221843980952183 0 0 0
265 1 2.259654063176564 34.50794856200609 19.992963690813944 0 0 0
266 1 4.479639543480327 32.94369178547062 19.992975610807978 0 0 0
267 1 4.479630058613056 34.507955823649674 17.764099455390003 0 0 0
268 1 6.699613012006392 32.94370269878482 17.764122615739403 0 0 0
269 1 6.699595491668917 34.50796860518933 15.535252723255562 0 0 0
270 1 8.919577112734213 32.94372304612176 15.535294842511169 0 0 0
271 1 8.919544250894727 34.50799492355789 13.306432965459555 0 0 0
272 1 11.139521167063153 32.94376306489013 13.306496981756448 0 0 0
273 1 11.13946319050946 34.508051859320275 11.077638961428063 0 0 0
274 1 13.359423415740029 32.9438392567997 11.077710002868658 0 0 0
275 1 13.359332836350525 34.50815626164483 8.848851418602004 0 0 0
276 1 15.579240967861985 32.943975220647836 8.848908936761624 0 0 0
277 1 15.579105565539901 34.50834848326666 6.620044221634271 0 0 0
278 1 17.798949420454406 32.94420755070329 6.6200593168554 0 0 0
279 1 17.798778866400184 34.50866606943363 4.391172153592786 0 0 0
280 1 20.018524406934826 32.944664747602 4.39114355859329 0 0 0
1561 1 22.23887578095719 6.350422008055917 4.391138177611739 0 0 0
1560 1 22.239332523271713 4.786679186231493 6.62005977357736 0 0 0
283 1 2.2596636190317856 34.5079436550124 24.450722555834417 0 0 0
284 1 4.479654031426314 32.943684240042664 24.45072800604276 0 0 0
285 1 4.479649601483043 34.507947186978065 22.22184759311363 0 0 0
286 1 6.699638869163753 32.943689603011066 22.221858599209117 0 0 0
287 1 6.6996307689694605 34.50795354745024 19.992983011363833 0 0 0
288 1 8.919621101862033 32.94369863739759 19.993003519773705 0 0 0
289 1 8.919607951258374 34.50796394444049 17.764135799387738 0 0 0
290 1 11.139603459865613 32.94371253167611 17.764170752459552 0 0 0