LAMMPS data file via write_data, version 2 Aug 2023, timestep = 5197, units = metal

7201 atoms
3 atom types

0.03956011959942459 53.319639655980176 xlo xhi
0.09417414687649256 37.63647785312375 ylo yhi
-22.325869352143062 75.6850691277226 zlo zhi

Masses

1 183.84
2 1.008
3 4.0026

Atoms # atomic

1 1 2.2594728073748924 36.07246979698279 0.006020350074148789 0 0 0
2 1 6.699291521361444 36.072433959290535 0.006010675107344629 0 0 0
3 1 11.138895851084131 36.07230334934687 0.005962935131122944 0 0 0
4 1 15.57836269378723 36.07239722905957 0.0055055603156628575 0 0 0
5 1 20.018163656239484 36.07274180348527 0.005285186756149066 0 0 0
6 1 24.45852801607258 36.07325409003982 0.005156394954216467 0 0 0
1703 1 24.458748029396652 3.2222756944262705 2.164245517486925 0 0 0
8 1 2.2595003185800735 32.944043183418586 0.006091564998476974 0 0 0
9 1 4.479338683240768 34.508301119574895 0.005904222362859388 0 0 0
10 1 6.6991854991852176 32.94405826891137 0.005794749018636878 0 0 0
11 1 8.919054967978134 34.508143535834456 0.0060227516319170836 0 0 0
12 1 11.138626433012993 32.943871753420204 0.005945297248759714 0 0 0
13 1 13.358491323315555 34.508138455666156 0.0057254285793662645 0 0 0
14 1 15.578107326664526 32.94414503185642 0.005687646145777727 0 0 0
15 1 17.798117646656333 34.50845421225656 0.005454291818744508 0 0 0
16 1 20.017937440080093 32.9448420015196 0.005288679907444893 0 0 0
17 1 22.238198736833677 34.50915693271845 0.005224623550571904 0 0 0
18 1 24.458427104697158 32.94586260368253 0.004936213056047892 0 0 0
1682 1 22.238501037933794 1.65843392639369 2.1643544792235674 0 0 0
20 1 2.2595367851254298 29.815642621283946 0.006207939832240289 0 0 0
21 1 4.479285785456136 31.379876420237593 0.005891924506999207 0 0 0
22 1 6.698976421485097 29.815516937292223 0.005752946531984799 0 0 0
23 1 8.918766265682631 31.37971048293596 0.006002219367471358 0 0 0
24 1 11.1383094527383 29.81551358963991 0.005892898113383476 0 0 0
25 1 13.358215473019941 31.379790505816956 0.0057427281299080625 0 0 0
26 1 15.57770543671544 29.81597558878815 0.005679294466085248 0 0 0
27 1 17.797770563154636 31.380447324116595 0.005433951743991473 0 0 0
28 1 20.017422603691347 29.816988309930554 0.005073223957446033 0 0 0
29 1 22.237888405600106 31.381522948678533 0.004970025334089935 0 0 0
30 1 24.457900023884214 29.81848804319431 0.00421574342595677 0 0 0
1681 1 20.018394115430283 3.2224891281506767 2.1644401023910422 0 0 0
32 1 2.2595038039510165 26.68710268634078 0.00605509842796815 0 0 0
33 1 4.479155644981201 28.25135232463033 0.005922609692700426 0 0 0
34 1 6.698875743986627 26.68699097707487 0.0057358123571561535 0 0 0
35 1 8.918596733111334 28.251208229623803 0.0058896190242133835 0 0 0
36 1 11.13815901130223 26.687000346554807 0.005746572724681344 0 0 0
37 1 13.357801684689168 28.251508356937606 0.0057893592025908104 0 0 0
38 1 15.57702089260005 26.687665637582544 0.00553060068542316 0 0 0
39 1 17.79704820068092 28.25235839768201 0.00520159792284306 0 0 0
40 1 20.015975930002032 26.68901630409051 0.00475357294173462 0 0 0
41 1 22.236899141869788 28.253805606837307 0.004393767312255938 0 0 0
42 1 24.456663738212388 26.69108066396214 0.0030949463300451257 0 0 0
1661 1 17.798467668875425 1.6584421182755342 2.16450649485521 0 0 0
44 1 2.2594383338761532 23.558420404560586 0.005682584747237225 0 0 0
45 1 4.47915944770708 25.122769241671307 0.005732587414064645 0 0 0
46 1 6.698831374086722 23.558326458380378 0.005591003261818152 0 0 0
47 1 8.91850582349188 25.122612795297073 0.005716142557105221 0 0 0
48 1 11.138046719922382 23.55834072904673 0.005734860110784349 0 0 0
49 1 13.357565118085848 25.122877327228238 0.005689736744712939 0 0 0
50 1 15.57670130061998 23.558781092984635 0.005410050486037916 0 0 0
51 1 17.79581914589756 25.123953754620054 0.005099508127740763 0 0 0
52 1 20.013733274910393 23.56030512084872 0.00410000587408992 0 0 0
53 1 22.23452046743173 25.12593417922073 0.003548776722711985 0 0 0
54 1 24.452713317974272 23.563059033753465 0.0014501385259272199 0 0 0
1660 1 15.578672695393863 3.222632333083007 2.1645940484454282 0 0 0
56 1 2.259448133075574 20.429589145232054 0.0054695777207211275 0 0 0
57 1 4.479155942289726 21.994013239266568 0.005461623718452233 0 0 0
58 1 6.698845366832948 20.42959327549375 0.0055182698302059805 0 0 0
59 1 8.918537520557031 21.993935795840187 0.0056566415112948975 0 0 0
60 1 11.138088181766756 20.429584841884456 0.005800877263624653 0 0 0
61 1 13.357403221099277 21.994082773724802 0.0057231748118773415 0 0 0
62 1 15.576494844233517 20.429590996579684 0.005450561544373305 0 0 0
63 1 17.79535452810354 21.99445372875382 0.004979611024687119 0 0 0
64 1 20.01335643662435 20.429584348289705 0.004431380821838575 0 0 0
65 1 22.230710322418183 21.99576524627996 0.002736273490349187 0 0 0
66 1 24.44984884875005 20.429591545994963 0.008907355457448784 0 0 0
1644 1 13.358935442662457 1.6584343287226626 2.1648005638515886 0 0 0
68 1 2.259441973067975 17.30076402135077 0.005673325773275854 0 0 0
69 1 4.479155747801922 18.86516803486672 0.00545488933977374 0 0 0
70 1 6.698842674639672 17.30085303727195 0.005590526127016519 0 0 0
71 1 8.918532331284235 18.865242230477218 0.005666228481321028 0 0 0
72 1 11.138040023126493 17.300836046792003 0.005742296561291906 0 0 0
73 1 13.35741011605309 18.865096539832688 0.005730498562568422 0 0 0
74 1 15.57669779090724 17.30040355257794 0.0054119267951878245 0 0 0
75 1 17.795351327143052 18.864731411761415 0.004979540981187571 0 0 0
76 1 20.01372988010562 17.29888231061801 0.004110676769237266 0 0 0
77 1 22.230709153364273 18.863404439225814 0.002725836116755469 0 0 0
78 1 24.452714983631715 17.2961090466851 0.0014461051909014126 0 0 0
1643 1 11.139079573847829 3.222638798244511 2.1649486494599954 0 0 0
80 1 2.2595088388110813 14.172080366590638 0.006058088819045664 0 0 0
81 1 4.479150460164856 15.736414071791971 0.005728752422473607 0 0 0
82 1 6.698872387787669 14.172188560053325 0.005735067607285405 0 0 0
83 1 8.918507302178098 15.736560357526733 0.005724549385000237 0 0 0
84 1 11.13815609873283 14.172180996911237 0.005746992692193681 0 0 0
85 1 13.357564362428771 15.736299015622636 0.00568875887114897 0 0 0
86 1 15.577022722214211 14.17151762514384 0.00553114549378129 0 0 0
87 1 17.795821516160693 15.735222904619762 0.00509776454480332 0 0 0
88 1 20.015968633027093 14.170159089017885 0.00474920833796292 0 0 0
89 1 22.23452698914958 15.733249049006693 0.00355519960706525 0 0 0
90 1 24.456653328500064 14.16809132926383 0.0030906399438769654 0 0 0
1631 1 8.91931022321338 1.6584309717562387 2.1650140913587363 0 0 0
92 1 2.259540191147393 11.043528987513293 0.006214226664266992 0 0 0
93 1 4.479145063326838 12.607827108364571 0.005926113123815724 0 0 0
94 1 6.698968984949077 11.043661567549115 0.005745669322710946 0 0 0
95 1 8.918598390375951 12.607971479789079 0.0058882569523575744 0 0 0
96 1 11.138313720323712 11.04366449020778 0.0058925930097116636 0 0 0
97 1 13.357807480799366 12.60767065943965 0.0057855156008994844 0 0 0
98 1 15.577710218328503 11.043202093536431 0.005683508697321025 0 0 0
99 1 17.797041758727634 12.606823713393462 0.005190853725447543 0 0 0
100 1 20.017420171038317 11.042191560775896 0.005063691707007741 0 0 0
101 1 22.23690387904801 12.605370214001129 0.004398064916559585 0 0 0
102 1 24.457889483879942 11.040687756830373 0.004217384986591469 0 0 0
1630 1 6.699387632040512 3.2226020942531615 2.1651028906444196 0 0 0
104 1 2.259497574447873 7.915128692703645 0.006092042294782635 0 0 0
105 1 4.479286659375277 9.479299654757614 0.005892408291678528 0 0 0
106 1 6.6991826947631745 7.91512191490732 0.005791998385319413 0 0 0
107 1 8.918766476530514 9.479474320591311 0.005999638330969205 0 0 0
108 1 11.138629304978169 7.915308678840622 0.005953496440707569 0 0 0
109 1 13.358213399810188 9.479379580768178 0.005743384889063904 0 0 0
110 1 15.578109266221698 7.915030689086051 0.005686714359132891 0 0 0
111 1 17.79776912283907 9.478733543471314 0.005440208790453422 0 0 0
112 1 20.01794047439833 7.914339557188283 0.005294490440150438 0 0 0
113 1 22.237887348378376 9.477652863283287 0.004961854744898414 0 0 0
114 1 24.458427774632206 7.913324795958127 0.004938122285339061 0 0 0
1622 1 4.479402253770886 1.6584405564433693 2.165131426465635 0 0 0
116 1 2.2594737468588786 4.786710764433019 0.006023150993028036 0 0 0
117 1 4.47934278265856 6.350876521697487 0.0059058224599594185 0 0 0
118 1 6.699292032109738 4.786745011430566 0.006013270193260946 0 0 0
119 1 8.919061392275154 6.351037572504258 0.006017757730453429 0 0 0
120 1 11.138898123299176 4.786876270072278 0.0059628639269439804 0 0 0
121 1 13.358485415006324 6.351043387276828 0.005729515651936019 0 0 0
122 1 15.57836936510044 4.786781128786387 0.005514974500101544 0 0 0
123 1 17.79811325488307 6.350715674054795 0.005456161247244676 0 0 0
124 1 20.018164168371502 4.786434718314543 0.0052758315619474035 0 0 0
125 1 22.238201087519805 6.3500329480678355 0.00522595354362747 0 0 0
126 1 24.458531575526628 4.785925932450407 0.0051520246102154015 0 0 0
1621 1 2.2595483263503247 3.222601384178826 2.1651168537605376 0 0 0
128 1 2.2594774562884026 1.658442698825617 0.006055385231125833 0 0 0
129 1 4.4794450405669215 3.222554279659407 0.0060738099726368325 0 0 0
130 1 6.699340387755788 1.6584383103507128 0.006170838362346547 0 0 0
131 1 8.91917117173017 3.2226320010642326 0.005998348412643791 0 0 0
132 1 11.139014514668773 1.6584331650839177 0.005892378033050559 0 0 0
133 1 13.358670015728556 3.222635977436632 0.005767543444283714 0 0 0
134 1 15.578476524842351 1.6584394989324074 0.005530966955408516 0 0 0
135 1 17.798275564652876 3.2225665804334733 0.005416634091686965 0 0 0
136 1 20.018156510919386 1.658437946293722 0.005441652575796233 0 0 0
137 1 22.238248617933 3.2222957631859024 0.005281053088889644 0 0 0
138 1 24.458587553856407 1.6584309122057903 0.0051665857936755615 0 0 0
1563 1 24.458765387336786 6.3498804894710785 2.164185320101805 0 0 0
140 1 4.479444530705225 0.09432630908372011 0.006071171744233664 0 0 0
141 1 8.919170298709084 0.09424169028535674 0.006002444858609172 0 0 0
142 1 13.358675939658479 0.09424025920038213 0.005763239362695972 0 0 0
143 1 17.798275801072023 0.09431353324517967 0.005418020928015563 0 0 0
144 1 22.238257469294147 0.09457634619930042 0.005293263382187885 0 0 0
1542 1 22.238499877978594 4.786273756223477 2.1643301279041536 0 0 0
1541 1 20.018352826111588 6.3504871443462125 2.1643889908711724 0 0 0
1521 1 17.798440623855058 4.7866437119483205 2.1644743858888273 0 0 0
1520 1 15.57850868651477 6.3509115348297085 2.1646623223319406 0 0 0
3802 1 26.675761779223834 22.001230612226244 -0.00446908419073946 0 0 0
1504 1 13.358813760204066 4.7868832308470335 2.164784615267884 0 0 0
1240 1 15.577699076116927 12.607438432931252 2.1646963569089976 0 0 0
1503 1 11.138913517732886 6.3511003858080315 2.1649832926362844 0 0 0
1491 1 8.919213788844644 4.786860292789147 2.165039322397707 0 0 0
1490 1 6.699279967848063 6.350985698187127 2.164941731883007 0 0 0
1224 1 13.358204784602213 11.043565110047107 2.1648834025734085 0 0 0
1223 1 11.138341045627513 12.607988678348859 2.16488142698153 0 0 0
1482 1 4.4794419507525 4.786748663778282 2.165028114156674 0 0 0
148 1 4.479439346118645 36.07243355997655 2.165025229147318 0 0 0
153 1 8.919206811614142 36.072315243329506 2.165040108649223 0 0 0
160 1 13.358817911492956 36.0722905426795 2.164775193243093 0 0 0
169 1 17.798452740104196 36.07253523738701 2.1644836222063195 0 0 0
180 1 22.23849717171995 36.07290490724904 2.164322929095204 0 0 0
1481 1 2.259578910094377 6.3509095698865305 2.1650726241327223 0 0 0
1423 1 24.45866858183699 9.477448954595799 2.163705412502857 0 0 0
221 1 2.259581711008319 34.50826514889336 2.1650693538199883 0 0 0
222 1 4.479417496856948 32.94407057206439 2.1649071419755512 0 0 0
230 1 6.699277140229181 34.508196918173425 2.164942954760449 0 0 0
231 1 8.91898294157773 32.9438936596066 2.1650269857775264 0 0 0
243 1 11.138917695560664 34.50807870880996 2.1649860466593647 0 0 0
244 1 13.358569518534201 32.94395830701169 2.1648206082053396 0 0 0
260 1 15.578506249497227 34.508255986945414 2.1646567928736813 0 0 0
261 1 17.798264804976714 32.94436613150368 2.164558302266519 0 0 0
281 1 20.01835226932813 34.50869916626379 2.1643797927814212 0 0 0
282 1 22.238410468430427 32.945104431673954 2.1642352318249523 0 0 0
303 1 24.458767292264447 34.50930264827175 2.1641875464357274 0 0 0
1402 1 22.238410015861277 7.9140735784513065 2.1642276286154343 0 0 0
1401 1 20.018136576148592 9.478453848660653 2.1642986795585286 0 0 0
361 1 2.2595491793751146 31.37984685973362 2.165131397898575 0 0 0
362 1 4.479327404436193 29.81558525954461 2.1649555862024954 0 0 0
370 1 6.69907102473382 31.379767121899647 2.1648419939678663 0 0 0
371 1 8.918726575311492 29.81542536854132 2.164964429441893 0 0 0
383 1 11.138638999567357 31.379659391922875 2.164969806652535 0 0 0
384 1 13.35820158474049 29.815616151956007 2.164881958503836 0 0 0
400 1 15.578201916280399 31.37997506959587 2.1647605470760993 0 0 0
401 1 17.797839886835803 29.816264863683358 2.16446765108755 0 0 0
421 1 20.01814567361475 31.38072006155346 2.164299867538857 0 0 0
422 1 22.23803317538789 29.817341299564514 2.1638259674620817 0 0 0
443 1 24.45866201860893 31.381718977249715 2.1637170042915894 0 0 0
1381 1 17.79827203216306 7.914820176928227 2.1645681047076617 0 0 0
1380 1 15.578216183289417 9.47921042730775 2.164770708248095 0 0 0
501 1 2.2595241314876917 28.25129966734525 2.1651246442141434 0 0 0
502 1 4.479237400443092 26.68695656722271 2.1648741819772215 0 0 0
510 1 6.698929767135851 28.251230807775624 2.164818288098716 0 0 0
511 1 8.91860302691481 26.68685708051198 2.1648243488080765 0 0 0
523 1 11.13834091658213 28.251190517853406 2.164878150454497 0 0 0
524 1 13.357803739708453 26.68716338781554 2.1648155963739564 0 0 0
540 1 15.57770212357223 28.251735686248956 2.1646999410265746 0 0 0
541 1 17.796802801036286 26.6881759020273 2.1643533184397064 0 0 0
561 1 20.01728221018457 28.252880622668194 2.1640710053531804 0 0 0
562 1 22.23637579810923 26.689999851398653 2.1632354986873006 0 0 0
583 1 24.45807126943492 28.254367464139644 2.16290857715157 0 0 0
1364 1 13.358562211211213 7.915223622669794 2.164822058597837 0 0 0
1363 1 11.13863708107915 9.47951469296079 2.164970053245502 0 0 0
641 1 2.2594796630063745 25.122635615640533 2.164850858331766 0 0 0
642 1 4.479170243871651 23.55829631862601 2.164597924130636 0 0 0
650 1 6.698872286784109 25.122606176779513 2.164703932247804 0 0 0
651 1 8.918515172435532 23.55823901429871 2.1647148716814093 0 0 0
663 1 11.138163083900428 25.12261245904654 2.1647770142156926 0 0 0
664 1 13.357662297498562 23.55848501775703 2.1647598625936304 0 0 0
680 1 15.577172287555259 25.123141100972052 2.1645843768897866 0 0 0
681 1 17.796057412121066 23.559130002677662 2.164184334098189 0 0 0
701 1 20.01492645644725 25.12509386405231 2.1637843380103012 0 0 0
702 1 22.23007316689527 23.563680601659176 2.1627162443174317 0 0 0
723 1 24.45518026019241 25.128394804030656 2.1619138127878594 0 0 0
1351 1 8.9189870335872 7.915287415974591 2.1650224332820387 0 0 0
1350 1 6.699071594064331 9.47941234481131 2.164839242195671 0 0 0
781 1 2.2594664154548747 21.99390206222307 2.164529963494825 0 0 0
782 1 4.47921157253027 20.429588267892804 2.164451904251556 0 0 0
790 1 6.6988218857957404 21.993941182242285 2.1645694423848245 0 0 0
791 1 8.918483413075585 20.42958932802102 2.164679812087687 0 0 0
1797 1 24.45874473946909 0.09460476927266864 2.1642372053882664 0 0 0
803 1 11.138127812597542 21.99394895286121 2.164797708002849 0 0 0
804 1 13.357591222736348 20.429583551197467 2.1647825186034866 0 0 0
820 1 15.576945427064823 21.99419604254209 2.1645370760551277 0 0 0
821 1 17.795760967520593 20.429600821992455 2.1641583134531674 0 0 0
841 1 20.0141948162297 21.994956214486304 2.163602823725186 0 0 0
842 1 22.23050344423461 20.429596750472758 2.1638049205236007 0 0 0
863 1 24.43538586309486 22.008222358247238 2.1627304313331672 0 0 0
1342 1 4.4794196488693965 7.915104513734473 2.164908117981294 0 0 0
1341 1 2.2595516353247507 9.479325129050938 2.1651344380874273 0 0 0
921 1 2.2594713174142464 18.865277003651492 2.164522672194579 0 0 0
1786 1 20.018394995262682 0.09438756959458058 2.1644486932781914 0 0 0
922 1 4.479158739237861 17.300885797926842 2.1645937265019137 0 0 0
930 1 6.69883289863326 18.86524123226776 2.16456944195403 0 0 0
931 1 8.918509477784987 17.30094085118063 2.1647217348058825 0 0 0
943 1 11.138124223119224 18.865228684036012 2.1648040486481985 0 0 0
944 1 13.357669309356739 17.300703181082724 2.1647722893001564 0 0 0
960 1 15.576935545178802 18.864987690175745 2.1645327317913443 0 0 0
961 1 17.79606105976601 17.300039556883764 2.164181128102383 0 0 0
981 1 20.01418756658557 18.86421820849327 2.163603852829752 0 0 0
982 1 22.230073177612756 17.295472826514573 2.162710888787511 0 0 0
1776 1 15.578664161482946 0.09424570484900774 2.164594325243113 0 0 0
1003 1 24.435412885874612 18.85095898296668 2.162738565571446 0 0 0
1283 1 24.458059201824355 12.604820246044795 2.162903168385625 0 0 0
1262 1 22.238028961576077 11.04185286012611 2.1638122275278344 0 0 0
1061 1 2.2594907375601863 15.73654819873396 2.164842115160743 0 0 0
1062 1 4.479232450947698 14.172218877134476 2.164874902012606 0 0 0
1070 1 6.698872088086984 15.736569956656934 2.16470307771555 0 0 0
1071 1 8.918606660819627 14.172321175220965 2.1648220236029734 0 0 0
1768 1 11.139077836312095 0.09423797400693516 2.1649475980636823 0 0 0
1083 1 11.138160823128908 15.736556860145843 2.1647829971930004 0 0 0
1084 1 13.357804495027137 14.172015126248949 2.1648127061228424 0 0 0
1100 1 15.577179802137042 15.736037562414893 2.164584367898593 0 0 0
1101 1 17.796796761818648 14.171016765201927 2.1643393436098957 0 0 0
1121 1 20.014917414370924 15.734098457201604 2.1637858981983746 0 0 0
1762 1 6.69938468427406 0.09427376103251744 2.1651029935655868 0 0 0
1122 1 22.236396702551232 14.169183275859188 2.163240658713223 0 0 0
1143 1 24.45513397427124 15.730768775161021 2.161911123020515 0 0 0
1261 1 20.01729366588688 12.60629280557029 2.164062593256492 0 0 0
1758 1 2.259548413413163 0.09427763161682452 2.1651141207328455 0 0 0
1241 1 17.797829664471276 11.04290310335028 2.1644612793385782 0 0 0
1201 1 2.259529347329304 12.607877248621964 2.165129719553347 0 0 0
1202 1 4.479314292554293 11.043586277508846 2.1649561046408414 0 0 0
1210 1 6.698928869202785 12.60795120934978 2.1648195066266984 0 0 0
1211 1 8.91871975219205 11.043760064821898 2.16496111193493 0 0 0
1704 1 26.67912874553749 1.658443577584872 2.164203272486482 0 0 0
1564 1 26.67915384080227 4.78588389288061 2.1642169090534544 0 0 0
3787 1 26.67803635631289 25.12954307446702 0.0014499303594625137 0 0 0
1144 1 26.67873244166206 14.166776960821053 2.1611565363803384 0 0 0
3817 1 26.67576475564549 18.857950544722122 -0.004446914469642403 0 0 0
1284 1 26.679198611196583 11.040328121317913 2.1629763497686874 0 0 0
3832 1 26.678050191361464 15.729633492845592 0.001435790646100832 0 0 0
1004 1 26.672343177250145 17.293132575711198 2.158801956593781 0 0 0
191 1 26.67916530460327 36.073275911695944 2.1642234250189043 0 0 0
444 1 26.67919135659724 29.81885740260495 2.162968875553511 0 0 0
1424 1 26.679264843596926 7.9132633691005925 2.1638843057078656 0 0 0
724 1 26.672320725375727 23.566101001803318 2.1588024368350633 0 0 0
304 1 26.679275639899718 32.94593554531894 2.163893192129151 0 0 0
584 1 26.678705793095887 26.692353466908987 2.161159489567221 0 0 0
3892 1 26.67903885690651 3.2221417569088304 0.005119681420967802 0 0 0
3907 1 26.679043486283252 0.09473690842121402 0.005120056139547349 0 0 0
357 1 0.039756880769831915 29.81546391851918 2.1649286412473434 0 0 0
497 1 0.039814845553786365 26.686905916015323 2.164851454887777 0 0 0
637 1 0.039829702638708546 23.55824289937265 2.164709128422355 0 0 0
1477 1 0.03970677651892779 4.786855972102175 2.1652355654656867 0 0 0
217 1 0.03973116598732114 32.94394028703632 2.165050066682574 0 0 0
777 1 0.03976083698416398 20.42959410881029 2.16460997652584 0 0 0
145 1 0.03971206628577704 36.072328600072375 2.165231581605907 0 0 0
3862 1 26.678954639688722 9.476206647920131 0.004373671548775993 0 0 0
3847 1 26.67854598837531 12.602813620978086 0.0032122103150459915 0 0 0
917 1 0.0398191408339998 17.30093708093227 2.1647064455495246 0 0 0
1337 1 0.039733977870071546 7.915241101952423 2.16505404140252 0 0 0
1057 1 0.03981440474277085 14.172277444896796 2.1648514991679217 0 0 0
3772 1 26.678527106253522 28.25637064461205 0.0032004167810482965 0 0 0
3757 1 26.678951598753375 31.382967254775707 0.004371997164844035 0 0 0
3742 1 26.67903775486787 34.50990337336081 0.005047640351056925 0 0 0
1197 1 0.039756056837466545 11.043714465703847 2.1649297753911703 0 0 0
1617 1 0.03973044552418794 1.6584406082850356 2.1653143639904875 0 0 0
139 1 0.03961378362253629 0.09428681650790528 0.00626606971851037 0 0 0
127 1 0.03961236995197507 3.222591956847916 0.006270304227583104 0 0 0
115 1 0.0397255127594128 6.350956093344107 0.006103587594149748 0 0 0
103 1 0.03979865175100147 9.479399004213569 0.0059312072726235765 0 0 0
91 1 0.03988869155658938 12.607891246573589 0.0058437101429120045 0 0 0
79 1 0.03983485091250753 15.736496940695051 0.0057660110622777365 0 0 0
67 1 0.03976211546903895 18.8652272078139 0.0055840680430946 0 0 0
55 1 0.03976787465443323 21.993956851211248 0.005590801733055281 0 0 0
43 1 0.039836073008462765 25.122678252576094 0.005773322658345412 0 0 0
31 1 0.039884530156854496 28.25128338810396 0.005846409841918725 0 0 0
19 1 0.03979850546744554 31.379779421953813 0.005928319494439602 0 0 0
3877 1 26.679026297812293 6.349277308976638 0.00504058095933203 0 0 0
7 1 0.03972815271549163 34.50822486563733 0.006097591445107881 0 0 0
1598 1 15.579644782768964 6.351159620887197 24.450995755005955 0 0 0
1596 1 24.4595635184648 6.351109299847409 11.077491024269873 0 0 0
147 1 2.2595823713250387 36.07245703104584 4.391752277988228 0 0 0
1595 1 24.459695798770642 4.786973874726174 13.306398940367439 0 0 0
1594 1 22.23963081024368 6.351209124253639 13.306452315366693 0 0 0
150 1 2.259573279763473 36.07235090003942 8.849531801680985 0 0 0
151 1 4.479542076026158 36.0724046542932 6.620598551589446 0 0 0
152 1 6.69942878027567 36.072343122358234 4.391656335842908 0 0 0
1593 1 22.239696253050653 4.787002875544592 15.535354358969366 0 0 0
1592 1 20.019608354901216 6.351227728477378 15.535403197970828 0 0 0
155 1 2.2595469711660248 36.072317868747085 13.307219346218067 0 0 0
156 1 4.4795563432726135 36.072345671991556 11.078350978763652 0 0 0
157 1 6.699562079017415 36.07237740428176 8.849446465320748 0 0 0
158 1 8.919457608040712 36.072331488173 6.620581396503064 0 0 0
159 1 11.139200235766186 36.072272521987685 4.391574868610098 0 0 0
1591 1 20.019733172197256 4.786936820708174 17.76425420223156 0 0 0
1590 1 17.799635780846522 6.351169152057298 17.76433541349962 0 0 0
162 1 2.259543716005371 36.0722350899535 17.76485463370947 0 0 0
163 1 4.479570067355968 36.07228927627032 15.536058256546971 0 0 0
164 1 6.699610117188558 36.07232803816841 13.307187687908757 0 0 0
165 1 8.919586715734063 36.072286299315586 11.078287081691258 0 0 0
166 1 11.139508452824641 36.072222375314865 8.849358034223068 0 0 0
167 1 13.359246542687195 36.07222539225138 6.620324382746344 0 0 0
168 1 15.578863675138484 36.072325782994625 4.391305271687032 0 0 0
1589 1 17.799671536326695 4.786922869298137 19.99315688922029 0 0 0
1588 1 15.57965183698221 6.351168445376908 19.993250416157885 0 0 0
171 1 2.2595635050014065 36.07214157313155 22.222343149918927 0 0 0
172 1 4.479619839167364 36.072174986895476 19.993588213284344 0 0 0
173 1 6.699654366787295 36.07220415643281 17.76480671525244 0 0 0
174 1 8.919632257578074 36.07221978022626 15.535929792538747 0 0 0
175 1 11.139650589059242 36.07220918036685 13.306989009959542 0 0 0
176 1 13.35953535481431 36.07218699801774 11.078038423693343 0 0 0
177 1 15.579311789234325 36.07219482324868 8.849111385356474 0 0 0
178 1 17.799046919075682 36.072294190433865 6.620118674420114 0 0 0
179 1 20.018690961076718 36.07254362497375 4.3911086878523085 0 0 0
1587 1 15.57963644901294 4.78691945846666 22.22214107839395 0 0 0
181 1 4.479614387412485 36.072101014199426 24.451038825122225 0 0 0
182 1 6.699640127138208 36.07211302281132 22.222281843237706 0 0 0
183 1 8.919666783018306 36.07213751774619 19.993501767749272 0 0 0
184 1 11.139680860712469 36.07221179585312 17.76460169762772 0 0 0
185 1 13.359653764515377 36.072224056534004 15.535665157119503 0 0 0
186 1 15.579599768093336 36.07219404532773 13.306781670646087 0 0 0
187 1 17.799451037449025 36.07221436911051 11.07786203325913 0 0 0
188 1 20.019257388420943 36.07232565757645 8.848906894126838 0 0 0
189 1 22.239078772200106 36.07253560809242 6.6199627208982115 0 0 0
190 1 24.458956435230522 36.07287030971935 4.390926040523299 0 0 0
1586 1 13.359649370167892 6.351194607248911 22.22217137611621 0 0 0
192 1 8.919647755824707 36.07217177875418 24.451077777154683 0 0 0
193 1 11.13965153479807 36.0721820284697 22.222254406291768 0 0 0
194 1 13.359671655000886 36.072235836021726 19.993347908180912 0 0 0
195 1 15.579685104809434 36.07224891131355 17.764404644890202 0 0 0
196 1 17.79964933547787 36.07221187477776 15.535512068780077 0 0 0
197 1 20.019612212742373 36.07219219816344 13.306602986798087 0 0 0
198 1 22.239518513678192 36.07230023101523 11.07765504639298 0 0 0
199 1 24.459390367947357 36.07245833734747 8.84872408064005 0 0 0
1585 1 13.359650066446802 4.78694464744292 24.45106444622141 0 0 0
201 1 13.359649915381333 36.0722294681414 24.451066165066248 0 0 0
202 1 15.579633879623843 36.072258173120744 22.22214173248864 0 0 0
203 1 17.799670694113445 36.07225918535722 19.993159249151347 0 0 0
204 1 20.01973484250081 36.0722388867636 17.76425670430019 0 0 0
205 1 22.23969156037274 36.07217995045284 15.535348663998072 0 0 0
206 1 24.459688615756473 36.07220569091876 13.306400259078702 0 0 0
1584 1 11.13963734879028 6.351226708154695 24.451060376491903 0 0 0
208 1 17.799643711835323 36.072271027895276 24.45093756253221 0 0 0
209 1 20.01963980094278 36.072273947187384 22.22195725208899 0 0 0
210 1 22.239699226573958 36.07220241226324 19.993001310763894 0 0 0
211 1 24.459744458142026 36.072108554774644 17.76413449266904 0 0 0
1599 1 17.799641649407945 4.786908170731219 24.45093627116456 0 0 0
213 1 22.239619285598398 36.07223961134062 24.450791678352644 0 0 0
214 1 24.459623899504052 36.072252918226894 22.221861814637208 0 0 0
1600 1 17.799657948451003 6.351141084088965 22.22201730970059 0 0 0
1581 1 24.45929381383539 6.350655933191924 6.619786748243234 0 0 0
1580 1 24.459387306766352 4.786720895730334 8.848718020391692 0 0 0
1579 1 22.23936018234204 6.350954375327676 8.848769732723014 0 0 0
1578 1 22.239520618057583 4.7868710685067395 11.077647157085357 0 0 0
220 1 2.259586032203014 32.944034169655716 4.391677839165003 0 0 0
1577 1 20.019463509128396 6.351141797173684 11.077707952916537 0 0 0
1576 1 20.0196006959198 4.786991556978237 13.306606100639614 0 0 0
1575 1 17.799513836265834 6.351265986381542 13.306692502978457 0 0 0
1574 1 17.79965633935619 4.786968096340364 15.535516745783617 0 0 0
225 1 2.259606335708987 32.943891312349095 8.84942865292502 0 0 0
226 1 2.2596048374130935 34.50819476054996 6.620591105941103 0 0 0
227 1 4.479507599423402 32.944009717909424 6.6204888425388715 0 0 0
228 1 4.47945874852687 34.50823134862778 4.3916007389189735 0 0 0
229 1 6.699312634899198 32.94396445568872 4.391576802819041 0 0 0
1573 1 15.579572070396717 6.351263593733461 15.535602331813626 0 0 0
1572 1 15.579688560555283 4.786932159042212 17.764403976357677 0 0 0
1571 1 13.359644162507463 6.351186892832639 17.764512788817253 0 0 0
1570 1 13.359669455949335 4.786937519303334 19.993345038959365 0 0 0
234 1 2.259570277507706 32.94383461703322 13.307146755859108 0 0 0
235 1 2.2595753216083647 34.50807508176144 11.078328547103643 0 0 0
236 1 4.479555503012372 32.94390876500108 11.078276129339178 0 0 0
237 1 4.479546804617461 34.508178934617014 8.849437218084153 0 0 0
238 1 6.6994365967299006 32.94394180228144 8.849388764074364 0 0 0
239 1 6.699449822017993 34.50818614723053 6.620544822571857 0 0 0
240 1 8.919232362301027 32.94384507728075 6.620548248203964 0 0 0
241 1 8.91922753493407 34.508134129673905 4.391663703862974 0 0 0
242 1 11.138937647503875 32.94381558855719 4.3915971852283455 0 0 0
1569 1 11.139631808052034 6.351264635631714 19.993412992977014 0 0 0
1568 1 11.139654787536948 4.786996993320589 22.22225457476747 0 0 0
1567 1 8.919621058474641 6.3513276631674085 22.222275826447163 0 0 0
1566 1 8.91964803693559 4.78700975271808 24.451078668496173 0 0 0
247 1 2.2595483619701136 32.94368604849213 17.764793109175656 0 0 0
248 1 2.2595623883887077 34.50805911366718 15.536018617076884 0 0 0
249 1 4.479551855148303 32.943788343936205 15.535968041232158 0 0 0
250 1 4.479563853173642 34.50811421276531 13.307176864360496 0 0 0
251 1 6.699519974848569 32.94384431603235 13.30711344420793 0 0 0
252 1 6.69953778574255 34.50815653719152 11.078288752651028 0 0 0
253 1 8.919428435172623 32.94378950811468 11.0782525247255 0 0 0
254 1 8.919462022942827 34.50808543543688 8.849446585819791 0 0 0
255 1 11.139242883041359 32.943688019694314 8.849367411703248 0 0 0
256 1 11.139247849368646 34.50800805644008 6.6204936814754785 0 0 0
257 1 13.359031443845826 32.94375761849507 6.62041286137084 0 0 0
258 1 13.358919001116965 34.50803216489159 4.3914412667543745 0 0 0
259 1 15.578664514685574 32.943985844968125 4.39138435729133 0 0 0
1565 1 6.699624304012454 6.351370819873335 24.4510351366684 0 0 0
1718 1 22.239487062965942 1.6584473799742252 11.07774793419878 0 0 0
1719 1 22.23926211094696 3.2225945196180334 8.848853259405853 0 0 0
1562 1 24.45895691959855 4.7862999862597695 4.390911032967555 0 0 0
264 1 2.259568802242977 32.94354268117316 22.222287745185618 0 0 0
265 1 2.2595453758228703 34.50789832628829 19.993583165536712 0 0 0
266 1 4.479560390101242 32.943574577870315 19.99351426670644 0 0 0