LAMMPS data file via write_data, version 2 Aug 2023, timestep = 272, units = metal

7201 atoms
3 atom types

0.039588835378641066 53.319610940200896 xlo xhi
0.09424946638168807 37.636402533618536 ylo yhi
-22.326985859770176 75.68618563534966 zlo zhi

Masses

1 183.84
2 1.008
3 4.0026

Atoms # atomic

1 1 2.2595855095559014 36.07215023370342 0.0047933140226987065 0 0 0
2 1 6.699558804183993 36.07217356413997 0.004773547873807417 0 0 0
3 1 11.139480833226246 36.07224010138209 0.004711271412284682 0 0 0
4 1 15.579382869422568 36.07232745933577 0.004604989204797697 0 0 0
5 1 20.01936843984144 36.072431892979054 0.004471882405629407 0 0 0
6 1 24.45952787509321 36.0724951216534 0.004359372349175012 0 0 0
1703 1 24.459558040699633 3.2226344862959655 2.163425973898367 0 0 0
8 1 2.2595766756225175 32.94364338093984 0.004786341537123985 0 0 0
9 1 4.479567084659974 34.50790721817428 0.0047812431781324915 0 0 0
10 1 6.699516715538934 32.94368431608246 0.0047487993372831985 0 0 0
11 1 8.91949899467068 34.50796738453429 0.004731487808816984 0 0 0
12 1 11.139401357899434 32.94378925952 0.004660295253084619 0 0 0
13 1 13.359392428810038 34.50807921943163 0.004636533287813553 0 0 0
14 1 15.579287323482657 32.943946607830775 0.004536874604411726 0 0 0
15 1 17.79931882825968 34.50821975004466 0.004509849015244997 0 0 0
16 1 20.019282518039766 32.94416965487392 0.004313838252267453 0 0 0
17 1 22.23940824635515 34.50837480503881 0.00431629099643133 0 0 0
18 1 24.459511905923218 32.944317440280955 0.0040961424693021845 0 0 0
1682 1 22.239504824803834 1.6585075483710083 2.1634673007757383 0 0 0
20 1 2.2595658206279445 29.815134671256356 0.0047770293119854205 0 0 0
21 1 4.479540227040445 31.37940488986517 0.004765467974518387 0 0 0
22 1 6.699465908544136 29.815183060127307 0.004719719656857243 0 0 0
23 1 8.919424551261196 31.379484622727134 0.004687480604782303 0 0 0
24 1 11.139296606274524 29.815300015177808 0.004597321252017579 0 0 0
25 1 13.359274259267107 31.379631874168204 0.0045610768311263065 0 0 0
26 1 15.579124259866585 29.81549353109076 0.004402846358293386 0 0 0
27 1 17.799176441139213 31.37985947013215 0.004350576774328744 0 0 0
28 1 20.019094159282545 29.81581659328528 0.00396884370146613 0 0 0
29 1 22.239303053929397 31.380127296582575 0.0039706814125404985 0 0 0
30 1 24.459416178056788 29.81608564967116 0.0034865791603415964 0 0 0
1681 1 20.019463829555864 3.222655531449721 2.1635072357415472 0 0 0
32 1 2.2595554746927258 26.68662158512291 0.004767741803363429 0 0 0
33 1 4.479511331272568 28.25089481542552 0.004749052380066254 0 0 0
34 1 6.699419291063034 26.68666341354024 0.004695648843219913 0 0 0
35 1 8.919350690178874 28.250972828827628 0.00464579994218698 0 0 0
36 1 11.139198200562554 26.6867635899344 0.004540530373674999 0 0 0
37 1 13.359137378496271 28.251120690675574 0.004466420413573542 0 0 0
38 1 15.578949495172866 26.686955215256372 0.004228679328297803 0 0 0
39 1 17.798968288070625 28.251397519921046 0.0040788004131175086 0 0 0
40 1 20.018834012320546 26.687322633499722 0.0034644590827602054 0 0 0
41 1 22.2390796014087 28.251779974682563 0.0033430616275890394 0 0 0
42 1 24.459260767579245 26.68766638200737 0.0024176847974999344 0 0 0
1661 1 17.79945249211985 1.6585074573544747 2.163574784586513 0 0 0
44 1 2.259548903196346 23.55810333763076 0.004761516993536787 0 0 0
45 1 4.479489022994719 25.12237444489471 0.004736989511092795 0 0 0
46 1 6.699389940229117 23.558126985986036 0.004682359769047008 0 0 0
47 1 8.919289599596778 25.122431501075546 0.00461570004183587 0 0 0
48 1 11.139125415338475 23.558185834186055 0.004499557663790066 0 0 0
49 1 13.359010473250137 25.122547477782135 0.004373900235847677 0 0 0
50 1 15.578793056054225 23.558311898542296 0.004071836967041386 0 0 0
51 1 17.79874502886369 25.12279309246667 0.0037621615704324925 0 0 0
52 1 20.018591108951505 23.558571013846144 0.002915980574176128 0 0 0
53 1 22.23883296615455 25.123171766399835 0.0024523642131694047 0 0 0
54 1 24.459126680270334 23.5587799238081 0.0016889654858480915 0 0 0
1660 1 15.579455810950675 3.2226987275872996 2.1636187054857894 0 0 0
56 1 2.259546954988792 20.42958225793885 0.004759433556002568 0 0 0
57 1 4.479477083429462 21.993847114728375 0.004731373693069376 0 0 0
58 1 6.699379359123473 20.429581888636022 0.004678308006826411 0 0 0
59 1 8.919258686043596 21.993866834348527 0.00460220665890074 0 0 0
60 1 11.139102953625947 20.429581191166776 0.004488171266317502 0 0 0
61 1 13.358932161494977 21.993912201084164 0.004315396135993378 0 0 0
62 1 15.578724213009188 20.429580888380357 0.0039954795229403105 0 0 0
63 1 17.798578643257297 21.994017927200666 0.00350709169649737 0 0 0
64 1 20.018492273871633 20.429583192637274 0.002708356854054935 0 0 0
65 1 22.238668839751902 21.994165570381114 0.0019783010001308064 0 0 0
66 1 24.4590521547162 20.42958569832993 0.0014806753718453827 0 0 0
1644 1 13.359482605791541 1.658506753165288 2.163666079965241 0 0 0
68 1 2.2595491491296023 17.301061242580804 0.004761695927551908 0 0 0
69 1 4.47947732060834 18.865317155014804 0.004731566990965 0 0 0
70 1 6.699390619973073 17.30103701038704 0.004682996798882314 0 0 0
71 1 8.919259165655747 18.865296383994966 0.004602725521925655 0 0 0
72 1 11.139126537460815 17.300976962885038 0.004500970995654965 0 0 0
73 1 13.358932846514687 18.865249643986935 0.004316443405437784 0 0 0
74 1 15.578794616814665 17.30085041586038 0.0040746439747825726 0 0 0
75 1 17.798579485475493 18.865145582965706 0.003509265982881853 0 0 0
76 1 20.01859280595943 17.300595503106514 0.002921036295144897 0 0 0
77 1 22.23866958752655 18.86500373527826 0.0019811339596450196 0 0 0
78 1 24.45912787703458 17.300390259569358 0.0016934595682825172 0 0 0
1643 1 11.139508277585168 3.2227279777759383 2.1636963997895653 0 0 0
80 1 2.2595558558449125 14.172543141021782 0.004768023352751099 0 0 0
81 1 4.479489649287156 15.736790057047541 0.004737479010930185 0 0 0
82 1 6.699420432943574 14.172501105035279 0.0046966631523194195 0 0 0
83 1 8.919290864775967 15.736732332636533 0.004617071646889505 0 0 0
84 1 11.139200088423463 14.17240034726117 0.004542878645138959 0 0 0
85 1 13.359012358472784 15.7366153500901 0.004376605296156139 0 0 0
86 1 15.578952012244674 14.172208576598656 0.004233186184044588 0 0 0
87 1 17.79874737698478 15.736371283694753 0.0037675257305945647 0 0 0
88 1 20.018836611363625 14.171844257685876 0.003472119198686102 0 0 0
89 1 22.238834997850034 15.735996672268753 0.0024590272696920533 0 0 0
90 1 24.459262420404446 14.171502125288074 0.0024237669486073202 0 0 0
1631 1 8.919543109041154 1.6585062891135354 2.1637257416181512 0 0 0
92 1 2.2595661976902335 11.044030182574152 0.004777307098478053 0 0 0
93 1 4.479512113721901 12.608270002030704 0.004749647274024228 0 0 0
94 1 6.699467134367066 11.043981986278668 0.004720751445748041 0 0 0
95 1 8.919352398376619 12.608191907502796 0.00464750919921953 0 0 0
96 1 11.139298717539404 11.043865174874753 0.004599782220252735 0 0 0
97 1 13.359139770726092 12.608043729818528 0.004469867626616567 0 0 0
98 1 15.57912678533591 11.043671957802554 0.004407356401961232 0 0 0
99 1 17.79897092594419 12.60776828185934 0.004085457368240683 0 0 0
100 1 20.01909604526784 11.043351050251868 0.003976406678510947 0 0 0
101 1 22.2390816601399 12.607388092169726 0.0033507284453103015 0 0 0
102 1 24.45941699050506 11.043082957089158 0.00349308851415403 0 0 0
1630 1 6.699563347822077 3.222749039505227 2.163742882475438 0 0 0
104 1 2.259576927435919 7.915521503649994 0.004786533127385644 0 0 0
105 1 4.4795408930508875 9.479760127265614 0.004765974372095971 0 0 0
106 1 6.699517679196577 7.915480973625615 0.004749579772552329 0 0 0
107 1 8.919426167696308 9.479680812742851 0.004688988334745521 0 0 0
108 1 11.139403151610836 7.915376720318079 0.0046621528348610095 0 0 0
109 1 13.359276488640521 9.479534040303363 0.004564140497737633 0 0 0
110 1 15.57928915835244 7.9152203352431645 0.004540159452141904 0 0 0
111 1 17.79917844020534 9.479307791559318 0.004355890746920119 0 0 0
112 1 20.019283359274656 7.914999058435255 0.004318947330489027 0 0 0
113 1 22.239303787067634 9.479041057005245 0.003976749739557285 0 0 0
114 1 24.459511630805153 7.914851343896287 0.004100308728869657 0 0 0
1622 1 4.47958044313598 1.6585059561077489 2.1637551156598747 0 0 0
116 1 2.2595856130668035 4.787014600687728 0.004793398018478109 0 0 0
117 1 4.479567489757262 6.351257800033104 0.004781552807553511 0 0 0
118 1 6.699559307958991 4.786991666847886 0.004773957007704051 0 0 0
119 1 8.919500118117739 6.351198281106645 0.004732475967935105 0 0 0
120 1 11.139481839129061 4.786926150759823 0.00471224052881916 0 0 0
121 1 13.359393973155619 6.351087538277469 0.004638455066009124 0 0 0
122 1 15.579383850293734 4.78684034815904 0.004606619955408497 0 0 0
123 1 17.799319839255748 6.350948482325515 0.004512908265110018 0 0 0
124 1 20.019368676840738 4.78673731959165 0.0044741101223134344 0 0 0
125 1 22.239408193618235 6.35079416707113 0.004319763510688742 0 0 0
126 1 24.45952753971075 4.786674033251509 0.004361308584404773 0 0 0
1621 1 2.259585693300322 3.2227594265844597 2.163759059932466 0 0 0
128 1 2.2595885960976263 1.6585058637630483 0.004795798112976691 0 0 0
129 1 4.479583531120185 3.2227570521109588 0.004791347004366345 0 0 0
130 1 6.699575158119955 1.6585060385127528 0.004783855389636373 0 0 0
131 1 8.919544838593422 3.222733595088975 0.00476058266876488 0 0 0
132 1 11.139509805812416 1.6585066441033063 0.0047306454565784846 0 0 0
133 1 13.359451123143891 3.222691604740576 0.004678632168546263 0 0 0
134 1 15.579410888413305 1.6585074854039408 0.004626775149284159 0 0 0
135 1 17.79937799210807 3.2226479209270606 0.004561454554953032 0 0 0
136 1 20.019393170708685 1.6585082489294798 0.004502505230405034 0 0 0
137 1 22.23944122848427 3.22260074445607 0.004434917181349677 0 0 0
138 1 24.459529890690124 1.6585079959206503 0.004416708716238749 0 0 0
1563 1 24.459552165359344 6.35088245633286 2.1632689557988134 0 0 0
140 1 4.4795834076284695 0.09425479388060864 0.004791248717396246 0 0 0
141 1 8.919544422754392 0.09427898316477577 0.00476022853485961 0 0 0
142 1 13.359450570023615 0.0943224579332238 0.0046780139470082955 0 0 0
143 1 17.79937762026136 0.09436784924466224 0.004560415138834735 0 0 0
144 1 22.239441315003447 0.09441546214983346 0.004434025482263878 0 0 0
1542 1 22.23949814716546 4.786778944360905 2.1634160610300017 0 0 0
1541 1 20.019434098414294 6.350964520414282 2.1634223181298506 0 0 0
1521 1 17.79943312956272 4.786851076957281 2.163543492383021 0 0 0
1520 1 15.579409869034652 6.351090297773403 2.163569249697481 0 0 0
584 1 26.67949957887237 26.6876804585054 2.1611225271552787 0 0 0
1504 1 13.359463368226297 4.786924579155264 2.1636475032039653 0 0 0
1284 1 26.679592981228694 11.043229156475846 2.1623836082180907 0 0 0
1503 1 11.139468193659688 6.351179582215107 2.163669015768291 0 0 0
1491 1 8.919526007689273 4.786974548709495 2.1637166904452583 0 0 0
1490 1 6.699536170518081 6.351239164112805 2.1637295492163506 0 0 0
1057 1 0.03959896971717165 14.172545236929448 2.16373850007263 0 0 0
1144 1 26.67950107663597 14.171489448934352 2.1611276663724417 0 0 0
1482 1 4.479571843873868 4.787006093914449 2.163750802414311 0 0 0
148 1 4.47957152520439 36.07215891469402 2.163750583276702 0 0 0
153 1 8.919525380528478 36.07219101316558 2.163716112135994 0 0 0
160 1 13.359462748995215 36.072241914925804 2.163646326724631 0 0 0
169 1 17.799432852273224 36.07231675925541 2.1635413265500967 0 0 0
180 1 22.239497989530424 36.07238932698448 2.1634140818821077 0 0 0
1481 1 2.259578749693577 6.351266229312654 2.16375439846207 0 0 0
1423 1 24.459491608183065 9.47914395206767 2.162835469366038 0 0 0
221 1 2.2595785099401455 34.5078986557713 2.163754241812538 0 0 0
222 1 4.479548805452246 32.943656356006706 2.1637395153795533 0 0 0
230 1 6.699535429986256 34.507926061207066 2.163728978875425 0 0 0
231 1 8.91947329652182 32.94370965402581 2.1636861301081067 0 0 0
243 1 11.139467147430684 34.50798626180329 2.1636677063028196 0 0 0
244 1 13.359390682481852 32.943804253910244 2.163589447996743 0 0 0
260 1 15.579408997404748 34.508076635328834 2.1635666858360603 0 0 0
261 1 17.79936053667974 32.94394689451876 2.163438648944625 0 0 0
281 1 20.0194336456337 34.50820389153071 2.1634188266219465 0 0 0
282 1 22.239445841503045 32.94411456602058 2.163168571967199 0 0 0
303 1 24.459551967709906 34.50828628646239 2.1632656354268796 0 0 0
1402 1 22.239447058028997 7.915053922725457 2.163173217998858 0 0 0
1401 1 20.019322623944415 9.479299781792164 2.1631469852846714 0 0 0
361 1 2.259567865621436 31.379390646725142 2.163746812387905 0 0 0
362 1 4.479520852827869 29.8151486053336 2.1637255232338664 0 0 0
370 1 6.699492565241808 31.379426636460344 2.1637063632498736 0 0 0
371 1 8.919410866546338 29.81520745900444 2.163648733723827 0 0 0
383 1 11.139389875459669 31.379508306678904 2.1636160020157553 0 0 0
384 1 13.359286424810634 29.81531877497563 2.1635107874849644 0 0 0
400 1 15.579302737106111 31.379642189524365 2.163470529813674 0 0 0
401 1 17.799213185263174 29.815533075800825 2.1632000410319474 0 0 0
421 1 20.01932065520862 31.37986862653562 2.1631409900571166 0 0 0
422 1 22.23930024758612 29.815784212013074 2.162687578341838 0 0 0
443 1 24.45948993752114 31.380024974755894 2.1628300174363595 0 0 0
1381 1 17.799361745052128 7.915220778614696 2.1634429193692033 0 0 0
1380 1 15.579304556826688 9.479524056265506 2.163474562512696 0 0 0
501 1 2.259556762422504 28.250879192483843 2.1637384397712185 0 0 0
502 1 4.479497183212934 26.686631891834306 2.163714044105703 0 0 0
510 1 6.6994480059447445 28.250914036360598 2.163683346167189 0 0 0
511 1 8.919353412553418 26.686682636871286 2.16361658488604 0 0 0
523 1 11.139305840380104 28.25099574384038 2.163560808279533 0 0 0
524 1 13.359171080252766 26.686790000563107 2.163410089366595 0 0 0
540 1 15.579161576286742 28.25115686553479 2.1633027242036333 0 0 0
541 1 17.799031839403757 26.68702238727525 2.1628926980264804 0 0 0
561 1 20.019136124929933 28.25144614816779 2.1627101102334505 0 0 0
562 1 22.23907635869267 26.68734753515077 2.161833167295893 0 0 0
583 1 24.45932852657333 28.251724642028368 2.161926150771129 0 0 0
1364 1 13.359392099863102 7.915361774862604 2.163591999337078 0 0 0
1363 1 11.139391457277505 9.479657043501229 2.1636181888337442 0 0 0
641 1 2.259548612414937 25.122362889781282 2.1637319515649582 0 0 0
642 1 4.479481628904162 23.55810910686034 2.1637069791005876 0 0 0
650 1 6.699417555044805 25.12238693044827 2.16366886439916 0 0 0
651 1 8.919319223921581 23.558136595970183 2.16359931644658 0 0 0
663 1 11.139234086286367 25.12244708626501 2.163512395831463 0 0 0
664 1 13.359090545837388 23.558203209688767 2.1633336343840517 0 0 0
680 1 15.579014805626798 25.12259034991673 2.163123623048609 0 0 0
681 1 17.79883511484147 23.558375990395827 2.162550639959846 0 0 0
701 1 20.01888861106654 25.122880769129566 2.162093351814216 0 0 0
702 1 22.238750103681767 23.558699249640263 2.160855759604662 0 0 0
723 1 24.459073691454282 25.12333384808691 2.1606023470868894 0 0 0
1351 1 8.919474495215054 7.915455722794337 2.1636873239154237 0 0 0
1350 1 6.699493629754444 9.479738442409593 2.1637072507426574 0 0 0
781 1 2.2595447860733935 21.993842778594217 2.1637286907944295 0 0 0
782 1 4.479477159132804 20.429582140653306 2.1637054911904667 0 0 0
790 1 6.6994011985760435 21.99385129168756 2.163662298830819 0 0 0
791 1 8.919308123248333 20.429581731312048 2.163593974497171 0 0 0
1797 1 24.45955806887927 0.09438090607253713 2.1634249396698233 0 0 0
803 1 11.139201665537572 21.99387329594008 2.1634905550777064 0 0 0
804 1 13.3590612837612 20.429581601059866 2.1633061732793037 0 0 0
820 1 15.57891401034367 21.99393371615808 2.1629914507605563 0 0 0
821 1 17.798731498029888 20.429584442232418 2.162386999025567 0 0 0
841 1 20.01864010409019 21.994075825694463 2.161576715307566 0 0 0
842 1 22.23863386354006 20.42958739233126 2.1605264410360827 0 0 0
863 1 24.458915930461668 21.994252535409164 2.159997123404278 0 0 0
1342 1 4.479549410142644 7.915508653411824 2.163739928933821 0 0 0
1341 1 2.2595682599915694 9.47977422861512 2.1637470616431256 0 0 0
921 1 2.2595449263105962 18.865321743883474 2.1637287823897884 0 0 0
1786 1 20.01946382465632 0.09435985091835412 2.1635061441714285 0 0 0
922 1 4.47948207304344 17.30105526759355 2.163707335074411 0 0 0
930 1 6.699401507138505 18.865312682854377 2.16366264052944 0 0 0
931 1 8.919319985797543 17.30102713357556 2.1636003239740282 0 0 0
943 1 11.139202194114016 18.865289823458703 2.16349130607204 0 0 0
944 1 13.359091796104353 17.30096028372903 2.1633355389988176 0 0 0
960 1 15.578914879922538 18.86523141112493 2.162992795100964 0 0 0
961 1 17.79883667863482 17.30079235429165 2.1625541430806754 0 0 0
981 1 20.01864098985722 18.86509636553173 2.161578860275092 0 0 0
982 1 22.2387517426672 17.300473879087168 2.160859271768334 0 0 0
1776 1 15.579455545632161 0.094315396203271 2.163617870308063 0 0 0
1003 1 24.458916256538046 18.86492286115473 2.1599984017476697 0 0 0
1283 1 24.45933145591854 12.607445039282624 2.161932593635414 0 0 0
1262 1 22.23930319772394 11.04338433350719 2.162693507300619 0 0 0
1061 1 2.259548974119985 15.736801738657862 2.1637321871698587 0 0 0
1062 1 4.479497922210188 14.1725327325406 2.163714593172349 0 0 0
1070 1 6.699418414233331 15.736777347028662 2.1636697320279326 0 0 0
1071 1 8.91935470549897 14.172481669510145 2.163618205406786 0 0 0
1768 1 11.139507966676742 0.09428500795155514 2.1636960269229895 0 0 0
1083 1 11.139235429874727 15.736716597955368 2.163514385602329 0 0 0
1084 1 13.359173126129102 14.172374184238734 2.163413295779288 0 0 0
1100 1 15.579016919704754 15.736574847333992 2.163127318886587 0 0 0
1101 1 17.799034383750147 14.172145302462173 2.1628983870418397 0 0 0
1121 1 20.01889106612173 15.736289543142949 2.162098478580118 0 0 0
1762 1 6.699563095569423 0.09426314086848464 2.1637426869624905 0 0 0
1122 1 22.239079524197855 14.171822604873979 2.1618389045322974 0 0 0
1143 1 24.45907603292526 15.735837736446795 2.1606063940945153 0 0 0
1261 1 20.01913902090287 12.60772266443891 2.1627165668845185 0 0 0
1758 1 2.259585620030424 0.09425235625107221 2.1637590077705307 0 0 0
1241 1 17.79921555510773 11.043634518525806 2.163206177607175 0 0 0
1201 1 2.259557209265217 12.608285579999455 2.1637387264437287 0 0 0
1202 1 4.479521650752854 11.044016279634388 2.1637260827132274 0 0 0
1210 1 6.699449139287493 12.608250676569687 2.163684385121304 0 0 0
1211 1 8.919412350629367 11.043957492926353 2.163650360375707 0 0 0
1223 1 11.139307558707136 12.60816884623085 2.1635633324902295 0 0 0
1224 1 13.359288412896047 11.043846402043819 2.1635141581988746 0 0 0
1240 1 15.579164127436611 12.608008741149828 2.163307441342112 0 0 0
357 1 0.03959467030512482 29.815132764715347 2.16374579887105 0 0 0
444 1 26.67959143218558 29.81593966089588 2.162378022549358 0 0 0
497 1 0.03959881968521862 26.68661949797781 2.1637383582199985 0 0 0
917 1 0.0396023491892305 17.301062376190657 2.1637328506261504 0 0 0
777 1 0.039603455636147325 20.429582312042932 2.1637307936136434 0 0 0
1197 1 0.03959481758521784 11.044032036338104 2.1637459421073273 0 0 0
637 1 0.039602257096187365 23.558102281657526 2.1637327669895607 0 0 0
7 1 0.03958975933507958 34.507894423610736 0.004792347943143964 0 0 0
724 1 26.67939652414767 23.558808883810094 2.1603348336257513 0 0 0
19 1 0.03959207807346132 31.379385977267493 0.004785522177544142 0 0 0
31 1 0.0395954115113355 28.250875575643743 0.004776960648535128 0 0 0
864 1 26.67931880051303 20.429588712148927 2.1600347169312926 0 0 0
43 1 0.0395994264198265 25.122360856028614 0.004769275713414167 0 0 0
55 1 0.039602066481130294 21.99384236190963 0.004764749808664328 0 0 0
1337 1 0.03959171394136973 7.915522606979099 2.163753372694667 0 0 0
67 1 0.03960210707684553 18.865322291101553 0.004764796174977619 0 0 0
145 1 0.039589656420560004 36.072150404654344 2.1637585986114125 0 0 0
217 1 0.039591613040713014 32.94364221741748 2.1637532704135687 0 0 0
1477 1 0.03958970388583083 4.787014403278089 2.1637586483337725 0 0 0
1004 1 26.679397391317146 17.30036429088458 2.1603369976802136 0 0 0
1617 1 0.03958933137059972 1.6585058620378939 2.1637606852561553 0 0 0
139 1 0.039589140463135664 0.09425049886993854 0.004795957839765613 0 0 0
127 1 0.039589149620482544 3.222761207963845 0.004795973949551428 0 0 0
115 1 0.039589807017875955 6.35127037848489 0.004792409625664784 0 0 0
103 1 0.03959217085503042 9.479778837553406 0.004785638178146709 0 0 0
91 1 0.03959553329248422 12.608289203588333 0.004777107158213206 0 0 0
79 1 0.039599531600629234 15.73680385453702 0.00476939818258212 0 0 0
1598 1 15.579436957392682 6.351165306412841 24.450811845743043 0 0 0
1596 1 24.459431806710697 6.350691582465192 11.076960651341418 0 0 0
147 1 2.2595762923234894 36.072157225104576 4.390343275528001 0 0 0
1595 1 24.459467513406747 4.7866138267942056 13.306005600853286 0 0 0
1594 1 22.23924422785041 6.350636682857656 13.306053154306937 0 0 0
150 1 2.2595622044712096 36.07216601117758 8.848155814559593 0 0 0
151 1 4.479537451048927 36.07217551231731 6.619237557058232 0 0 0
152 1 6.699525508789743 36.07218531980983 4.390319179154497 0 0 0
1593 1 22.239347844985744 4.786653353390479 15.53504509027382 0 0 0
1592 1 20.01917403449208 6.350772811300939 15.535080821127341 0 0 0
155 1 2.259555492300305 36.07216935483195 13.305995450344346 0 0 0
156 1 4.479505574502617 36.07218496475679 11.077068284224326 0 0 0
157 1 6.699465499082121 36.07220620672186 8.848136077586787 0 0 0
158 1 8.919445074739018 36.07222353093326 6.619199428890117 0 0 0
159 1 11.139454037725269 36.07222452197726 4.390267113021097 0 0 0
1591 1 20.019309491288684 4.786757201333293 17.764028630352097 0 0 0
1590 1 17.799219465125717 6.3509567845474555 17.764027856562304 0 0 0
162 1 2.259565431852613 36.072164560282395 17.763854585774187 0 0 0
163 1 4.47950909365835 36.07218268861345 15.534928678944507 0 0 0
164 1 6.699438317579688 36.072211546256646 13.305997301733814 0 0 0
165 1 8.919374440956084 36.07224352052514 11.07705442438401 0 0 0
166 1 11.139344961948384 36.072269282880924 8.848101660578811 0 0 0
167 1 13.359363409040089 36.07227868161427 6.619143261686625 0 0 0
168 1 15.579421316355132 36.07225955039717 4.390192215919938 0 0 0
1589 1 17.799332039500918 4.786843076309453 19.99295601378926 0 0 0
1588 1 15.579295139568533 6.351084039776243 19.992932227329376 0 0 0
171 1 2.2595788050573558 36.07215585121678 22.221722648860204 0 0 0
172 1 4.479543364127532 36.07217141590351 19.992795856074093 0 0 0
173 1 6.699473788863066 36.07219893910259 17.763875931703527 0 0 0
174 1 8.91938108666315 36.07223614561041 15.53494689551829 0 0 0
175 1 11.139295200340975 36.072280770041445 13.306000065290865 0 0 0
176 1 13.359268000656703 36.07231552473935 11.077033524543028 0 0 0
177 1 15.579290570138765 36.072339659843244 8.848054863176493 0 0 0
178 1 17.799372960672166 36.07234047756211 6.6190728954221605 0 0 0
179 1 20.019474094462105 36.07231588065043 4.39010175326942 0 0 0
1587 1 15.579403541093006 4.786918799752019 22.2218665915553 0 0 0
181 1 4.479573311455721 36.07215779605069 24.450666752503846 0 0 0
182 1 6.699532537900642 36.072179338891516 22.22174528904204 0 0 0
183 1 8.91945556765019 36.072211921147705 19.99283454214413 0 0 0
184 1 11.139353812601296 36.07225162613033 17.763913705453003 0 0 0
185 1 13.359268698495478 36.072300130247314 15.534971234234094 0 0 0
186 1 15.579205496124716 36.07238489643077 13.305999224158024 0 0 0
187 1 17.799260775688246 36.07242861013172 11.076997607581717 0 0 0
188 1 20.01936568037709 36.07241865784777 8.84799890071707 0 0 0
189 1 22.2394900653117 36.07236897306962 6.61901149387225 0 0 0
190 1 24.45957893021 36.07235097264673 4.390020606955039 0 0 0
1586 1 13.359402763536522 6.351160962455506 22.22184193076424 0 0 0
192 1 8.919530858092585 36.07218499911685 24.450698192660017 0 0 0
193 1 11.139460060555557 36.07221442047922 22.22179753459389 0 0 0
194 1 13.35936180341571 36.07225954749396 19.99289040684074 0 0 0
195 1 15.579277869844878 36.07231101149426 17.763956015203593 0 0 0
196 1 17.799236546218424 36.07241791696818 15.535002310590382 0 0 0
197 1 20.01926929612135 36.07250155006855 13.306005206988228 0 0 0
198 1 22.239392579345026 36.07249885061135 11.076987391367462 0 0 0
199 1 24.45953328302842 36.07243179693125 8.847963403357126 0 0 0
1585 1 13.359475769550613 4.786952743088551 24.450757564975383 0 0 0
201 1 13.359474681377549 36.07221475092755 24.450758463688782 0 0 0
202 1 15.579401757335996 36.07225098657046 22.221867715002535 0 0 0
203 1 17.79932983983193 36.07233025660953 19.992957096102998 0 0 0
204 1 20.019306134370666 36.07241759389157 17.76403031805608 0 0 0
205 1 22.239343797844544 36.07252169781356 15.535046955975487 0 0 0
206 1 24.459463466649275 36.07256147507495 13.306007561732162 0 0 0
1584 1 11.139486203994776 6.351203884563706 24.450735484751146 0 0 0
208 1 17.79944404575294 36.07225024163228 24.450842668207976 0 0 0
209 1 20.019413471607166 36.07232671145558 22.221970123648006 0 0 0
210 1 22.239401069534935 36.07241740216329 19.993053702247582 0 0 0
211 1 24.45945480042999 36.07251546525967 17.764082821856483 0 0 0
1599 1 17.799445087354226 4.786919425720945 24.45084091295332 0 0 0
213 1 22.239486932842798 36.0723066762373 24.450957669101378 0 0 0
214 1 24.459507455612602 36.072411103038654 22.22205733214087 0 0 0
1600 1 17.799365235951395 6.351081057996164 22.22194092107665 0 0 0
1581 1 24.459527325198195 6.350906524976617 6.618911914018752 0 0 0
1580 1 24.45953553901722 4.786739750427142 8.847963985983782 0 0 0
1579 1 22.23936757821155 6.350829143067915 8.847953779859251 0 0 0
1578 1 22.239396476937284 4.786674626188286 11.076987000873054 0 0 0
220 1 2.259564455203216 32.94365236818036 4.390336685518331 0 0 0
1577 1 20.019209201175048 6.350769349718615 11.077000739839601 0 0 0
1576 1 20.019273423979538 4.786672339429108 13.30600509737491 0 0 0
1575 1 17.799114099538922 6.350814491710234 13.30601606590138 0 0 0
1574 1 17.79924037740961 4.786756532285429 15.535001993390619 0 0 0
225 1 2.259546629226083 32.943666302660496 8.848151330033543 0 0 0
226 1 2.259562658291783 34.50791154926668 6.619243587760284 0 0 0
227 1 4.47950324860254 32.94367964126718 6.619228712549868 0 0 0
228 1 4.479542329211024 34.50791922332172 4.390330194087416 0 0 0
229 1 6.699482378004672 32.94369459568748 4.390303353559186 0 0 0
1573 1 15.5791720656173 6.350980305417098 15.534999118099341 0 0 0
1572 1 15.579280451380699 4.786860960474757 17.76395568858942 0 0 0
1571 1 13.359272660981045 6.351099745365622 17.76394171081632 0 0 0
1570 1 13.359364333024637 4.7869103911930715 19.992889747963364 0 0 0
234 1 2.259541329258268 32.943670448739994 13.30599603461021 0 0 0
235 1 2.259549661403994 34.507920695393054 11.077071040398431 0 0 0
236 1 4.479468683289425 32.943692302014945 11.077066392845197 0 0 0
237 1 4.479502570332366 34.50793696546313 8.84814594403526 0 0 0
238 1 6.699409862604032 32.94372537496236 8.84812882354091 0 0 0
239 1 6.6994714742399095 34.50795842137106 6.619216111283638 0 0 0
240 1 8.919383042666222 32.94375280120854 6.619183963027803 0 0 0
241 1 8.919463721421367 34.50797117951647 4.390286469066431 0 0 0
242 1 11.139392570407221 32.94376332227818 4.390237889264655 0 0 0
1569 1 11.139382262900828 6.351160137149448 19.992868483193252 0 0 0
1568 1 11.139461527048523 4.786953013234824 22.221796807798807 0 0 0
1567 1 8.919478746617838 6.351208328485958 22.221775911220767 0 0 0
1566 1 8.919531913257963 4.786981076811596 24.45069755382819 0 0 0
247 1 2.259553219555222 32.94366391807089 17.76385969673092 0 0 0
248 1 2.2595524895813446 34.50791961471375 15.534925164269158 0 0 0
249 1 4.4794755660638 32.94368834870998 15.534933186505508 0 0 0
250 1 4.479485050579644 34.507941915937145 13.30599683844254 0 0 0
251 1 6.699385407577828 32.943731180910014 13.306000232442225 0 0 0
252 1 6.6994165246793544 34.50797691134777 11.077061415837656 0 0 0
253 1 8.919299648289408 32.943785455733305 11.077052698853135 0 0 0
254 1 8.919372925223621 34.5080106507148 8.848116201319032 0 0 0
255 1 11.139259473315716 32.943832903860354 8.848089195579238 0 0 0
256 1 11.139362707101256 34.50803372651243 6.619164335035943 0 0 0
257 1 13.359273179312803 32.943859301659955 6.6191176199795265 0 0 0
258 1 13.359401299701412 34.50802729329777 4.39021547887989 0 0 0
259 1 15.57934690022038 32.943849770046576 4.390144016408521 0 0 0
1565 1 6.699543803645522 6.35124474651362 24.45068488489782 0 0 0
1718 1 22.239466410193508 1.6585097911607898 11.076978956043812 0 0 0
1719 1 22.23948068542719 3.2226303965694796 8.8479939261836 0 0 0
1562 1 24.459579023991385 4.786817993324615 4.390022491014893 0 0 0
264 1 2.259570301433874 32.943649990179814 22.22172881805619 0 0 0
265 1 2.2595676242342324 34.50790925183762 19.992790006971102 0 0 0
266 1 4.479515688822904 32.94367226460561 19.992804934449072 0 0 0
267 1 4.479510605676772 34.50793171094258 17.76386571521312 0 0 0
268 1 6.699427793813381 32.94371231997608 17.763886114856255 0 0 0
269 1 6.699424515395183 34.50797033113576 15.534939603114982 0 0 0
270 1 8.919316128192406 32.943770531721846 15.534956391540446 0 0 0
271 1 8.919337223926389 34.50801869630557 13.30600074733064 0 0 0
272 1 11.139202766247843 32.94384817870911 13.306005685813327 0 0 0
273 1 11.139268076505296 34.50807196306747 11.077043828900825 0 0 0
274 1 13.359130124670417 32.9439403533327 11.077026530002795 0 0 0
275 1 13.359254967335401 34.50811265228057 8.848072464234098 0 0 0
276 1 15.579147954454259 32.94400663819538 8.848033088272585 0 0 0
277 1 15.579304909361383 34.508125942453326 6.619095410568411 0 0 0
278 1 17.799241550277504 32.94402404151726 6.619018663554571 0 0 0
279 1 17.799410400947473 34.50810396163656 4.390120952036067 0 0 0
280 1 20.019382836161135 32.94401120689888 4.389948217178871 0 0 0
1561 1 22.239499490229115 6.350975417540619 4.389977801287114 0 0 0
1560 1 22.23949095974121 4.786800819539494 6.619012530564402 0 0 0
283 1 2.25958073226066 34.507898097186896 24.45066362277744 0 0 0