LAMMPS data file via write_data, version 2 Aug 2023, timestep = 3248, units = metal

7201 atoms
3 atom types

0.039469809007630224 53.31972996657198 xlo xhi
0.0943753036167169 37.63627669638365 ylo yhi
-22.32699999452951 75.6861997701088 zlo zhi

Masses

1 183.84
2 1.008
3 4.0026

Atoms # atomic

1 1 2.25943898038343 36.072130379774165 0.004934497001629283 0 0 0
2 1 6.699217216257999 36.072069969354295 0.004880499823179292 0 0 0
3 1 11.139061757450092 36.072063623791976 0.0048683764245069 0 0 0
4 1 15.57899169113313 36.07206704426616 0.0048413487236684686 0 0 0
5 1 20.01909971593797 36.07208629867162 0.004634174661960862 0 0 0
6 1 24.45932320234072 36.072222201549444 0.0044566888520742665 0 0 0
1703 1 24.45936888642971 3.222603701839147 2.163377203772268 0 0 0
8 1 2.2594433400693403 32.94373871616249 0.004912805081929388 0 0 0
9 1 4.479336373242111 34.50791054256234 0.004898274639395833 0 0 0
10 1 6.699209599988725 32.94370243960503 0.004860207866010161 0 0 0
11 1 8.919128243756864 34.50790395785444 0.0048794906204617985 0 0 0
12 1 11.13901780837287 32.9437542011258 0.004895166365661239 0 0 0
13 1 13.35898098447039 34.50792981234529 0.00486663347027985 0 0 0
14 1 15.57887423628996 32.943820264452455 0.0047594792857220325 0 0 0
15 1 17.798981217567405 34.50797086915189 0.004703316691776404 0 0 0
16 1 20.018943284668143 32.94392297142151 0.004500694651447577 0 0 0
17 1 22.23912992430701 34.50806103291553 0.0044825895107453 0 0 0
18 1 24.459207398859427 32.94411167817131 0.0042073706306578265 0 0 0
1682 1 22.239303903422556 1.658440109832235 2.163533161234133 0 0 0
20 1 2.2594408159200174 29.815275067067848 0.004907763918502059 0 0 0
21 1 4.479302777342962 31.37948879195129 0.004879629226053004 0 0 0
22 1 6.699152013585326 29.81530435810761 0.004873934499870076 0 0 0
23 1 8.919073103640043 31.37956273898975 0.004879608567823575 0 0 0
24 1 11.138876829269211 29.815417048997364 0.004865663993286296 0 0 0
25 1 13.358838604338095 31.379628753794314 0.004822027792720837 0 0 0
26 1 15.578656702702352 29.815545866955183 0.00458235868530672 0 0 0
27 1 17.798761304747458 31.379734525833992 0.004525628023593646 0 0 0
28 1 20.018665777376157 29.81568930193955 0.004144227611861631 0 0 0
29 1 22.23891675222348 31.379912694535253 0.004157811732246217 0 0 0
30 1 24.458938985694715 29.81603289022209 0.0035946224961078293 0 0 0
1681 1 20.01913265437943 3.2225477602221826 2.163549586219013 0 0 0
32 1 2.259443224843306 26.68674138087402 0.004947864268021774 0 0 0
33 1 4.479265802319105 28.25104730008475 0.004930049861373766 0 0 0
34 1 6.699047211929567 26.686848869551735 0.004940970687860195 0 0 0
35 1 8.918924740006434 28.251129771211094 0.004878037265270859 0 0 0
36 1 11.138630745099698 26.686970779760102 0.004736900698296761 0 0 0
37 1 13.358603899170612 28.251282800026228 0.004653065358531383 0 0 0
38 1 15.5783241841101 26.68714756234396 0.004260339131495158 0 0 0
39 1 17.798456751428006 28.25143505344224 0.004187422946137549 0 0 0
40 1 20.018257817987493 26.687388871992784 0.003552827075520458 0 0 0
41 1 22.238566032364538 28.25172494786809 0.003551214822806909 0 0 0
42 1 24.45854917129007 26.68790824648883 0.0023324465892974816 0 0 0
1661 1 17.79912452172616 1.6584067540211977 2.16373695575006 0 0 0
44 1 2.25942211534374 23.558171530579017 0.00502600469575743 0 0 0
45 1 4.4792144535961125 25.122516543626396 0.00499074600973506 0 0 0
46 1 6.698928872665216 23.558290258848956 0.004938654770492737 0 0 0
47 1 8.918743244910548 25.12263340489902 0.0048487443608208605 0 0 0
48 1 11.138383023039825 23.55839643175231 0.004547301952502472 0 0 0
49 1 13.35828288117021 25.122806754431913 0.004367999970842607 0 0 0
50 1 15.577905591172433 23.55859585085062 0.0038139099010715874 0 0 0
51 1 17.798019356276857 25.123015911669153 0.0036452306781376326 0 0 0
52 1 20.01768545250508 23.558880361371322 0.002600578765465244 0 0 0
53 1 22.238054843992284 25.123393548483193 0.0024186492085681017 0 0 0
54 1 24.4580810449348 23.559414283350524 6.553403315535642e-05 0 0 0
1660 1 15.579015492052042 3.222549190972181 2.163778130314101 0 0 0
56 1 2.259360732161701 20.429606058239592 0.00506455621610106 0 0 0
57 1 4.479122498932695 21.993931595328956 0.005017718308643 0 0 0
58 1 6.6988273601983614 20.429662886570494 0.00486241279960823 0 0 0
59 1 8.918596597991241 21.994018149946292 0.004731448351120451 0 0 0
60 1 11.138225350354542 20.429695797554974 0.0043576892245147806 0 0 0
61 1 13.357989748463527 21.99412750147802 0.0040565866040505 0 0 0
62 1 15.577561764973236 20.429770596600825 0.003414610964212463 0 0 0
63 1 17.797507697606303 21.994325145401408 0.0029535936936757163 0 0 0
64 1 20.017100775009347 20.429900756347386 0.0014945776211028796 0 0 0
65 1 22.23745900950567 21.994621134464133 0.000707888243200322 0 0 0
66 1 24.45786456641834 20.43000361056501 -0.0011607456622116342 0 0 0
1644 1 13.359049755083012 1.6584180082934168 2.163865325398175 0 0 0
68 1 2.2593185132758786 17.301026156875412 0.005016696772522664 0 0 0
69 1 4.479069065460128 18.86533834419441 0.004956631236849322 0 0 0
70 1 6.698796682895794 17.30100069018659 0.004760490991280688 0 0 0
71 1 8.918515866188068 18.86532715168298 0.004604340900299825 0 0 0
72 1 11.138203655416147 17.300897147935174 0.004268592494387049 0 0 0
73 1 13.357848765575765 18.865278177070348 0.003890369028939748 0 0 0
74 1 15.577476403464065 17.300745269044445 0.00331086660912357 0 0 0
75 1 17.797125151132928 18.865251772594593 0.0024123985643733463 0 0 0
76 1 20.016931190950363 17.300505434017115 0.0011857199365479917 0 0 0
77 1 22.237117323906837 18.865199935317953 -0.0001676710986027241 0 0 0
78 1 24.457805294372985 17.30021359589338 -0.001340674488910505 0 0 0
1643 1 11.139050719955694 3.2226116798851634 2.1638519376016485 0 0 0
80 1 2.2592960739041095 14.17245064873744 0.004925198532032762 0 0 0
81 1 4.479059758136396 15.736708660574942 0.004865580362688661 0 0 0
82 1 6.698840417339137 14.17233563414292 0.004703731362181428 0 0 0
83 1 8.918541098582715 15.736600103424772 0.00453768493025151 0 0 0
84 1 11.138295921887352 14.172134300155127 0.004336845573068086 0 0 0
85 1 13.357889323455609 15.736390453195408 0.0039248124788240244 0 0 0
86 1 15.577698137068673 14.171834590436292 0.0036008594671374126 0 0 0
87 1 17.79725333981134 15.736076748395474 0.0026271085726022807 0 0 0
88 1 20.017357296851475 14.171343568082023 0.0020301653932096784 0 0 0
89 1 22.237245303119945 15.735573414976475 9.305870380621814e-05 0 0 0
90 1 24.458138773833795 14.170619999056493 -0.0003924146021819064 0 0 0
1631 1 8.919154611538618 1.6584982211424864 2.163861252123883 0 0 0
92 1 2.2593140644164613 11.043867658589908 0.004876313286556042 0 0 0
93 1 4.479098788187544 12.608106932379927 0.0048072903892159785 0 0 0
94 1 6.698928016598026 11.043749524785644 0.0047379022146807346 0 0 0
95 1 8.91865264112731 12.607926306122385 0.004589900680507122 0 0 0
96 1 11.138502858799683 11.04352086392251 0.004512164353535878 0 0 0
97 1 13.358140587634509 12.60766439672807 0.004168427650552811 0 0 0
98 1 15.578110971472377 11.043219075981078 0.004031629751388948 0 0 0
99 1 17.797704268836313 12.607286047136189 0.003296642496788299 0 0 0
100 1 20.01799752702387 11.0428167809939 0.003120638053157179 0 0 0
101 1 22.237870480491967 12.606722770474809 0.0017816181780222877 0 0 0
102 1 24.45867291452878 11.042319347856347 0.0020447147040817833 0 0 0
1630 1 6.699218471473189 3.2227243327254067 2.163891302886532 0 0 0
104 1 2.259349328975139 7.915358617016746 0.004891652831142044 0 0 0
105 1 4.479153901171341 9.479568025280946 0.004828857266108041 0 0 0
106 1 6.6990366520507445 7.915260367483749 0.0048025660592819685 0 0 0
107 1 8.918791922659144 9.479379827634926 0.004700631862474951 0 0 0
108 1 11.138757429986159 7.915056658800679 0.004679595024312948 0 0 0
109 1 13.358450994243283 9.47914049964963 0.004449790788317089 0 0 0
110 1 15.578499470589586 7.914834633173932 0.004427744720387175 0 0 0
111 1 17.79823258315754 9.478854526765911 0.00394316484087572 0 0 0
112 1 20.01850310828897 7.914597441335895 0.003932575073395522 0 0 0
113 1 22.238480608235605 9.478502667919276 0.003206958829529985 0 0 0
114 1 24.45904610542206 7.914406277650712 0.003516732296231202 0 0 0
1622 1 4.479334679413282 1.6585704909230927 2.163943641651004 0 0 0
116 1 2.2593906510849533 4.786935316563718 0.0049225934780750035 0 0 0
117 1 4.479222260612946 6.351119333932509 0.0048767908647951285 0 0 0
118 1 6.699123170094086 4.786871395853892 0.004856518947814602 0 0 0
119 1 8.91896125994538 6.350965869604307 0.004772385248643558 0 0 0
120 1 11.138916457555892 4.786719166915019 0.004785287565686347 0 0 0
121 1 13.358742534037313 6.35079401600304 0.004683517199970177 0 0 0
122 1 15.578805792269645 4.7865903365588505 0.004688552964469546 0 0 0
123 1 17.798645785742014 6.350597852192735 0.004429133051371431 0 0 0
124 1 20.01887270578764 4.786460905178754 0.004412520365817726 0 0 0
125 1 22.23887397654351 6.350475399110033 0.004032010051848019 0 0 0
126 1 24.459229609805995 4.78645763630054 0.004198572591627366 0 0 0
1621 1 2.2594089102944728 3.22276567034753 2.1639502489412754 0 0 0
128 1 2.2594274006926405 1.6585677843407276 0.0049411840088178964 0 0 0
129 1 4.47929378700578 3.222731645829108 0.004927049689705674 0 0 0
130 1 6.699184239987386 1.6585170853310893 0.004881127745915624 0 0 0
131 1 8.91905910285127 3.2226374095527994 0.004817892023779506 0 0 0
132 1 11.139041728577102 1.6584417153119415 0.004846050723491042 0 0 0
133 1 13.358927384352237 3.2225150429789045 0.004822474966663389 0 0 0
134 1 15.578968615493686 1.6583626373013174 0.004802894820053222 0 0 0
135 1 17.798927550497112 3.2224153659487786 0.004661875104810925 0 0 0
136 1 20.01907737652141 1.6583318652326478 0.004628876138000183 0 0 0
137 1 22.239126425748303 3.2224215182236584 0.004434638640736731 0 0 0
138 1 24.459327766564968 1.6584093630432677 0.004463594313514636 0 0 0
1563 1 24.459249214649137 6.350804953470201 2.1629446589203747 0 0 0
140 1 4.47932211945586 37.636272912640216 0.0049284162817957965 0 -1 0
141 1 8.91911943019423 37.636207889913074 0.004844717590994215 0 -1 0
142 1 13.359026507878157 37.63619568146361 0.004881615746573382 0 -1 0
143 1 17.799027590913266 37.63616898438594 0.004746909271442 0 -1 0
144 1 22.239221260497295 37.63621184318289 0.004561680026513553 0 -1 0
1542 1 22.23914494998417 4.786690699343418 2.1632784064306643 0 0 0
1541 1 20.018931499859303 6.35079697854687 2.1632283245028976 0 0 0
1521 1 17.7989743120256 4.786671267819753 2.1635805342675396 0 0 0
1520 1 15.578839460578644 6.3508488929909355 2.16359474087699 0 0 0
1240 1 15.578183398994026 12.60770739636758 2.162832719264072 0 0 0
1504 1 13.358950456047817 4.786738988342175 2.163782745756535 0 0 0
724 1 26.679094565717975 23.55975015300399 2.1569237160740515 0 0 0
1503 1 11.138911787839596 6.350960604144263 2.163754607568531 0 0 0
1491 1 8.919072602864107 4.786838751821216 2.1638301904193735 0 0 0
1490 1 6.699142871689137 6.351108218231958 2.1638533271715685 0 0 0
1224 1 13.358485640483874 11.043524959077997 2.163334244078935 0 0 0
1223 1 11.138546898884275 12.607906276970349 2.1634300247921456 0 0 0
1482 1 4.479294172392814 4.786942224743511 2.163925542512272 0 0 0
148 1 4.479349534318743 36.072086820593036 2.163926135399166 0 0 0
153 1 8.91918397205439 36.07205729352808 2.163897663980507 0 0 0
160 1 13.359092712063164 36.07206101939714 2.163882234031272 0 0 0
169 1 17.799167123711698 36.07202065500482 2.1637422020986588 0 0 0
180 1 22.239323115193216 36.07206923339144 2.1635447467792646 0 0 0
1481 1 2.259392710964874 6.351168686514914 2.1639265603172393 0 0 0
1423 1 24.459042815468095 9.478933403609165 2.16193316954454 0 0 0
221 1 2.2594395127546387 34.50792296528957 2.1639355029328935 0 0 0
222 1 4.479336155320915 32.94369611502077 2.163897957058381 0 0 0
230 1 6.699245350523544 34.507878604886606 2.163897054449683 0 0 0
231 1 8.919139233103085 32.9437230968522 2.163901702773948 0 0 0
243 1 11.139101508764204 34.50791288037378 2.1638993207124217 0 0 0
244 1 13.359028714945921 32.94374538419168 2.163874542284768 0 0 0
260 1 15.57909328177452 34.50789317870637 2.1638289640639017 0 0 0
261 1 17.79906434615264 32.94374938035816 2.1636414340279355 0 0 0
281 1 20.019187564570412 34.50789235223775 2.163588416933473 0 0 0
282 1 22.239227820073108 32.94376483322171 2.1633379567132716 0 0 0
303 1 24.45942380678046 34.50796064904814 2.1633719867081065 0 0 0
1402 1 22.238932341838336 7.914884986990552 2.1627014810163745 0 0 0
1401 1 20.01861137379307 9.47907275733021 2.162591975025834 0 0 0
361 1 2.259434943857438 31.37950317370588 2.1639053377932145 0 0 0
362 1 4.479294951399518 29.81527367516337 2.1639126030719713 0 0 0
370 1 6.6992161554536835 31.37949637964308 2.163898924848216 0 0 0
371 1 8.91905169808586 29.81532581424243 2.1639110267106405 0 0 0
383 1 11.139019141060013 31.379548732317183 2.1638941309507183 0 0 0
384 1 13.358877288836377 29.815375312192515 2.1637614809157504 0 0 0
400 1 15.57895210243028 31.379590783749286 2.1636965612866446 0 0 0
401 1 17.798862379976764 29.815395782711775 2.1633840491185574 0 0 0
421 1 20.01905231776899 31.37957807972355 2.1633369576296992 0 0 0
422 1 22.239052137091935 29.815435512447863 2.162906586982329 0 0 0
443 1 24.45932527883687 31.379681863406564 2.1629677139853785 0 0 0
1381 1 17.798709509191685 7.914963471266144 2.163216196759997 0 0 0
1380 1 15.578555925147375 9.479214456607261 2.1632568005873662 0 0 0
501 1 2.259442246178146 28.251014888135536 2.1639364523386844 0 0 0
502 1 4.479249434940984 26.68679949992998 2.1639725910725196 0 0 0
510 1 6.699129813660762 28.251071272735008 2.163925444925506 0 0 0
511 1 8.918914578095336 26.68684406745802 2.1638822239189075 0 0 0
523 1 11.138858177597548 28.251125223374476 2.1638143192537975 0 0 0
524 1 13.358642960701099 26.686898648633726 2.1635228614577002 0 0 0
540 1 15.578719457801979 28.251169454141348 2.1634454092575486 0 0 0
541 1 17.798566183643654 26.686980375375285 2.1629209274886168 0 0 0
561 1 20.01880282968677 28.251219855316847 2.162878825932179 0 0 0
562 1 22.238805430418406 26.687034214778247 2.162041946671194 0 0 0
583 1 24.45917716526285 28.25135956756593 2.162077078961111 0 0 0
1364 1 13.35874900011215 7.915082752096635 2.16360114916196 0 0 0
1363 1 11.138754261942903 9.479359670948286 2.163618446829047 0 0 0
641 1 2.259418126820864 25.122479965661746 2.163992991924489 0 0 0
642 1 4.479203280715171 23.558220610481538 2.1640183881395303 0 0 0
650 1 6.699034041782377 25.12256483279488 2.1639642504377257 0 0 0
651 1 8.918763690320938 23.558275302687907 2.163799986632983 0 0 0
663 1 11.138661625670133 25.12259314451957 2.163640211862252 0 0 0
664 1 13.358365194858745 23.558341164634797 2.163209271475316 0 0 0
680 1 15.578401806725367 25.12268308270363 2.16303568548083 0 0 0
681 1 17.798173590457687 23.55841188161344 2.162262220055195 0 0 0
701 1 20.01845158215451 25.12273771100992 2.162093754917703 0 0 0
702 1 22.238392884096804 23.558481317122794 2.1606209609624254 0 0 0
723 1 24.45891529968122 25.12295784094897 2.1604349606332116 0 0 0
1351 1 8.918962311955623 7.915241341076019 2.1637743701198966 0 0 0
1350 1 6.699036583895571 9.479556149585141 2.163800565913295 0 0 0
781 1 2.259406660735595 21.99390583545696 2.1640684544184694 0 0 0
782 1 4.479171972491037 20.429615915559577 2.1639994692004296 0 0 0
790 1 6.698964560568596 21.993945068836044 2.1639137124325463 0 0 0
791 1 8.918679061344676 20.429626609307174 2.1636667903416535 0 0 0
1797 1 24.45942786913142 37.63624476183308 2.1634759003542956 0 -1 0
803 1 11.138486675346028 21.99396683343751 2.163442412450001 0 0 0
804 1 13.358186888326598 20.429629373605334 2.1629461176369524 0 0 0
820 1 15.578040698029094 21.99403770967439 2.1625737220689123 0 0 0
821 1 17.797688558612858 20.429670336103374 2.161562056189653 0 0 0
841 1 20.017937782006136 21.994096903424367 2.1609777979103817 0 0 0
842 1 22.23760192631708 20.429797918707276 2.1587901271338876 0 0 0
863 1 24.45827655291779 21.99463213064209 2.1577299538389294 0 0 0
1342 1 4.479221772544925 7.915383254189406 2.163872937180824 0 0 0
1341 1 2.25933567971267 9.479630478214045 2.1638833353569304 0 0 0
921 1 2.259379677997772 18.86530248065241 2.164058659746598 0 0 0
1786 1 20.019239667946238 37.63617772910357 2.163664790188215 0 -1 0
922 1 4.479138351490888 17.30099644276226 2.1639176265141993 0 0 0
930 1 6.698904594540724 18.865297260622214 2.1638159769502443 0 0 0
931 1 8.918640937807794 17.300941447904105 2.163565120088973 0 0 0
943 1 11.13838914125143 18.86526743146644 2.163298435339471 0 0 0
944 1 13.35811009531968 17.300866170819404 2.162882689399351 0 0 0
960 1 15.577843052161265 18.86523144480558 2.162299299969439 0 0 0
961 1 17.797537354201886 17.30068976703518 2.1613671478477894 0 0 0
981 1 20.01724926579146 18.86513184921169 2.1599603707935704 0 0 0
982 1 22.237228180131176 17.3003049137656 2.1582105452661526 0 0 0
1776 1 15.579089045008702 37.636180271067026 2.1638294422583106 0 -1 0
1003 1 24.45782649135578 18.86511293874883 2.156850605921935 0 0 0
1283 1 24.45869222375542 12.607039116009235 2.1599506592940623 0 0 0
1262 1 22.23857373815749 11.04311136723395 2.161563426334996 0 0 0
1061 1 2.259353336382417 15.736716377836455 2.163986506191332 0 0 0
1062 1 4.479145039747701 14.172408604440935 2.1638482186466392 0 0 0
1070 1 6.698916391027891 15.736656206932782 2.1637424936825695 0 0 0
1071 1 8.91871065595542 14.172275562893269 2.1635628014365182 0 0 0
1768 1 11.139116709992857 37.63621783559476 2.1638975267448153 0 -1 0
1083 1 11.138420201950312 15.736539003936075 2.1632779548423096 0 0 0
1084 1 13.35822405712388 14.172116741849543 2.163034111087928 0 0 0
1100 1 15.577862971837954 15.736376827977972 2.162401138860175 0 0 0
1101 1 17.79786046935783 14.171866239843006 2.161912548730467 0 0 0
1121 1 20.017531810704178 15.736071335200956 2.160405762405762 0 0 0
1762 1 6.699253060230801 37.63624433944969 2.163904140006146 0 -1 0
1122 1 22.237985257383773 14.17145966765085 2.159815692074984 0 0 0
1143 1 24.457929904493323 15.735107415413264 2.1569537912294963 0 0 0
1261 1 20.018131519746255 12.607422231490357 2.1615616077565387 0 0 0
1758 1 2.259442684738617 0.09440206119583505 2.163964706790591 0 0 0
1241 1 17.79833521327657 11.043345598050367 2.162639845313368 0 0 0
1201 1 2.259344674163671 12.608142180744006 2.1639121655877283 0 0 0
1202 1 4.479165785191677 11.043853799141877 2.1638233753810576 0 0 0
1210 1 6.698961996178788 12.608051939226383 2.1637235645951662 0 0 0
1211 1 8.918818356179115 11.043702563774847 2.1636680427873336 0 0 0
191 1 26.679563660522337 36.07216813478024 2.163407227362435 0 0 0
3787 1 26.678971431237485 25.12424962602079 -0.00022158714114283188 0 0 0
1144 1 26.679131359634354 14.170364652977954 2.157342247672632 0 0 0
3847 1 26.679305379987557 12.606172898133629 0.00042073997490602705 0 0 0
1704 1 26.679542669536556 1.6585457649775228 2.1634485629500544 0 0 0
1564 1 26.67948731631054 4.786766476700994 2.1632095871850754 0 0 0
3817 1 26.6789353783929 18.865014725157618 -0.0020721846848644723 0 0 0
1284 1 26.679317741895254 11.042896935552083 2.1608648735482476 0 0 0
1424 1 26.679419614219896 7.914910217170568 2.162531562121899 0 0 0
304 1 26.679551842094366 32.94393606210868 2.1630713022943224 0 0 0
444 1 26.679504937121767 29.81571008809616 2.1622264909326483 0 0 0
584 1 26.679461508913104 26.687553816563522 2.16038156283871 0 0 0
7 1 0.03956033242526047 34.5079614132353 0.004923227308047503 0 0 0
3742 1 26.679464990676315 34.5082934692047 0.004279292948195072 0 0 0
3907 1 26.679502503378902 0.09443709845698005 0.0044418796575564756 0 0 0
637 1 0.03959977489738975 23.55817938071525 2.1639837653525626 0 0 0
497 1 0.03960749653838036 26.686753033698132 2.163911414111576 0 0 0
1004 1 26.678840034680942 17.300072617019612 2.1561540061496407 0 0 0
357 1 0.03961641521205905 29.815265323384963 2.163884125203197 0 0 0
777 1 0.03957494518477489 20.42959284079827 2.1640568626618086 0 0 0
864 1 26.6791495781953 20.42994121031534 2.156072790130778 0 0 0
1477 1 0.039512217563761 4.786972675484954 2.163936143640009 0 0 0
217 1 0.03955963213100944 32.943726866782036 2.1639275938330593 0 0 0
1337 1 0.03951719440296131 7.915392746470831 2.1639052118296505 0 0 0
145 1 0.03954341425568941 36.07213071377074 2.1639508235558953 0 0 0
3862 1 26.67944066112601 9.478315626821917 0.0028183542556166593 0 0 0
917 1 0.039547731710833034 17.300989500671868 2.164069085894704 0 0 0
3832 1 26.679067525016706 15.735230081328808 -0.0014600558845171872 0 0 0
3802 1 26.67897835937012 21.994838182500967 -0.0016498559907011452 0 0 0
1057 1 0.03953584567096158 14.172415634998437 2.1639946729843085 0 0 0
3772 1 26.67916980927343 28.252369201404804 0.0024042198917058836 0 0 0
3757 1 26.679356801894812 31.380290574059355 0.0037126911791119785 0 0 0
1197 1 0.0395101819523731 11.043880900826526 2.1639374323384133 0 0 0
3877 1 26.67947798212463 6.350488045424422 0.003920328442036316 0 0 0
1617 1 0.03950945188576327 1.6585931965007106 2.1639648322814105 0 0 0
139 1 0.03952419967553311 0.0944275544870228 0.004941074714578733 0 0 0
127 1 0.03951216418036552 3.222765504253106 0.0049346464952865115 0 0 0
115 1 0.039507907704518175 6.351156712223037 0.004913140185260199 0 0 0
103 1 0.03951029954198759 9.479621288251057 0.004909055605004246 0 0 0
91 1 0.03950927415719008 12.608154259008794 0.004949041680305587 0 0 0
79 1 0.03953244012562607 15.736723717278373 0.005027293135046917 0 0 0
67 1 0.039595461368321594 18.86528821721176 0.005064455247380673 0 0 0
55 1 0.039637821839114906 21.99386812391602 0.005014649790548621 0 0 0
43 1 0.039657899366403626 25.122444246529245 0.00492286185157443 0 0 0
31 1 0.03963915945315932 28.251028574011134 0.004876119475359854 0 0 0
19 1 0.03960250527418907 31.37953814853561 0.004892813641335837 0 0 0
3892 1 26.67950846133346 3.2225065044626686 0.004359633484532444 0 0 0
1598 1 15.579566267411378 6.351312349685656 24.450900988247454 0 0 0
1596 1 24.459514744667874 6.351382606173879 11.076775218103476 0 0 0
147 1 2.2594551969326346 36.07209783765284 4.3905836644166225 0 0 0
1595 1 24.459564800688597 4.787152871891573 13.30582001384227 0 0 0
1594 1 22.239461099189427 6.351340129828386 13.305853671363552 0 0 0
150 1 2.2594551307536777 36.07207308421666 8.848458898531467 0 0 0
151 1 4.479376221317947 36.07209254867645 6.619498889065677 0 0 0
152 1 6.699272191416479 36.072068926003205 4.39054131338594 0 0 0
1593 1 22.239507177493845 4.787108401194548 15.534851309789245 0 0 0
1592 1 20.019432660321893 6.351302418634111 15.53490755459453 0 0 0
155 1 2.2594537104824473 36.0720805207472 13.306315121378535 0 0 0
156 1 4.479405747100229 36.07210387247629 11.077379204724416 0 0 0
157 1 6.699335624181019 36.072110592348935 8.848432421607848 0 0 0
158 1 8.919278496293654 36.072082789313704 6.619490514417954 0 0 0
159 1 11.139186958019092 36.072082794294936 4.390542618128763 0 0 0
1591 1 20.01948447595935 4.78711664453092 17.76389102835479 0 0 0
1590 1 17.79946283768434 6.35131451483339 17.763960623375894 0 0 0
162 1 2.25944501035547 36.07211433656898 17.764159676743958 0 0 0
163 1 4.47945366561356 36.07210339184574 15.535255949491178 0 0 0
164 1 6.69940001342388 36.07212606679104 13.306327717522137 0 0 0
165 1 8.919350179887896 36.07212511741146 11.077363698288563 0 0 0
166 1 11.139298262757162 36.072093614371944 8.848409003330284 0 0 0
167 1 13.359264025302126 36.07206898481246 6.619444373172387 0 0 0
168 1 15.579219263911831 36.072045588942 4.390448401270833 0 0 0
1589 1 17.799530477424813 4.787125585081291 19.992950622937673 0 0 0
1588 1 15.579502073023699 6.3513220763437515 19.993030803042117 0 0 0
171 1 2.2594463584243334 36.07211816736097 22.222040480514938 0 0 0
172 1 4.479434018159903 36.07212949083509 19.993108640387124 0 0 0
173 1 6.69944533337549 36.072117839780184 17.764191480280015 0 0 0
174 1 8.919442443545163 36.072128018517276 15.535229143787038 0 0 0
175 1 11.139381996229996 36.07213342640338 13.306263863106071 0 0 0
176 1 13.359344827333313 36.07211094464568 11.077310281765786 0 0 0
177 1 15.57934630197506 36.0720990535574 8.848312049506353 0 0 0
178 1 17.799335544100742 36.072061259181986 6.619277303285167 0 0 0
179 1 20.019331237532853 36.07203744693452 4.390242817752641 0 0 0
1587 1 15.579546396792646 4.787095563296194 22.22196429130824 0 0 0
181 1 4.479445540277096 36.07210830784591 24.450950432488405 0 0 0
182 1 6.699445778196138 36.07213167462089 22.222022946424783 0 0 0
183 1 8.919453248615982 36.07213603685709 19.993087765094394 0 0 0
184 1 11.139437273894622 36.07213894441654 17.764140675066376 0 0 0
185 1 13.359393108648476 36.072149345418545 15.535193233416717 0 0 0
186 1 15.579396821784647 36.07217456821612 13.306204171797601 0 0 0
187 1 17.799399121155478 36.07216448590257 11.077158307416994 0 0 0
188 1 20.019433123125975 36.072086078314044 8.848095339093371 0 0 0
189 1 22.23947209793185 36.07203111536511 6.619068323892823 0 0 0
190 1 24.459506000801635 36.072015686205205 4.390066288028055 0 0 0
1586 1 13.359534216808706 6.351294114792261 22.22199248758112 0 0 0
192 1 8.919462188076558 36.07211224605998 24.450962732959457 0 0 0
193 1 11.139481396858592 36.07214248458261 22.222032491362768 0 0 0
194 1 13.359459164657496 36.07216030274334 19.993094630075415 0 0 0
195 1 15.579423222666998 36.07217238007181 17.764110210353856 0 0 0
196 1 17.79941793535584 36.07222032522016 15.535073059821476 0 0 0
197 1 20.0194565442307 36.07222465835543 13.306010404720709 0 0 0
198 1 22.239512405866304 36.07212788750513 11.076956369080575 0 0 0
199 1 24.459578449408188 36.0720290811605 8.847919135178309 0 0 0
1585 1 13.359543785370997 4.787092328657191 24.450926010636906 0 0 0
201 1 13.35951066233827 36.07214832466698 24.450970999716393 0 0 0
202 1 15.579507844997089 36.07219482100383 22.22201377049124 0 0 0
203 1 17.799487581048393 36.07218931865576 19.99300304015115 0 0 0
204 1 20.01945781766886 36.07220286875715 17.76396102211166 0 0 0
205 1 22.239490646519496 36.072198287142974 15.534917501108671 0 0 0
206 1 24.459563419106637 36.07211114645463 13.305860921542921 0 0 0
1584 1 11.139545220064958 6.351288114926577 24.450937730594223 0 0 0
208 1 17.79956447542598 36.07216622020836 24.450894643782426 0 0 0
209 1 20.01955271850848 36.07216685412187 22.22191473325546 0 0 0
210 1 22.2395220244487 36.072156923473926 19.99289356503645 0 0 0
211 1 24.459542507507923 36.072156255629416 17.763835721887126 0 0 0
1599 1 17.799589041778177 4.787096256725779 24.450859743049474 0 0 0
213 1 22.239598406963573 36.07212573739248 24.450835116482907 0 0 0
214 1 24.45957605452006 36.07213517205897 22.22182842936207 0 0 0
1600 1 17.799539218380925 6.351333607496713 22.221942839321642 0 0 0
1581 1 24.459391497099364 6.351156845556513 6.6186823884194155 0 0 0
1580 1 24.459517540887656 4.787068700106269 8.847830526319774 0 0 0
1579 1 22.2393642718234 6.351152003872193 8.847817637823391 0 0 0
1578 1 22.239491692714086 4.787083717723838 11.076904623095418 0 0 0
220 1 2.2594377285008247 32.94369566725516 4.39054874273439 0 0 0
1577 1 20.01935714682331 6.351203121259712 11.07694768774818 0 0 0
1576 1 20.019458187779094 4.787067595824715 13.30595849957419 0 0 0
1575 1 17.799351084487228 6.351251001418481 13.306031562367414 0 0 0
1574 1 17.799437658665827 4.787085604591941 15.535005670369667 0 0 0
225 1 2.2594339430354062 32.94364279431106 8.848453218572066 0 0 0
226 1 2.2594427791238356 34.50787711127275 6.619506951935657 0 0 0
227 1 4.479364791089857 32.94366383578182 6.619511953549226 0 0 0
228 1 4.479360264951837 34.50787753161057 4.390553406614342 0 0 0
229 1 6.699255517622095 32.94367766130537 4.390564985317847 0 0 0
1573 1 15.579394526848771 6.351278997717516 15.535072681192649 0 0 0
1572 1 15.579491269089875 4.787115732129461 17.764066513167034 0 0 0
1571 1 13.359444732946846 6.351308904624912 17.764119558754604 0 0 0
1570 1 13.359508102334074 4.787073692122164 19.993061672054793 0 0 0
234 1 2.259444303313722 32.94365074199607 13.306343627417682 0 0 0
235 1 2.2594341268745417 34.50785717340454 11.077387798268964 0 0 0
236 1 4.479392737552293 32.94367535933559 11.077402488359144 0 0 0
237 1 4.479378493289737 34.50788091215974 8.848435254094644 0 0 0
238 1 6.699317167419087 32.94369804700457 8.84846435883218 0 0 0
239 1 6.699309999649126 34.50788684500901 6.619495407620881 0 0 0
240 1 8.919196945521815 32.943706212779205 6.619492644893487 0 0 0
241 1 8.919199967049861 34.50789524423584 4.390547963661063 0 0 0
242 1 11.139130522885868 32.94371598798685 4.390523012631565 0 0 0
1569 1 11.139487217970684 6.351276078431396 19.993085248339685 0 0 0
1568 1 11.139507436113005 4.787066341486324 22.22200307360673 0 0 0
1567 1 8.919515189588587 6.351262574097453 22.222015907327943 0 0 0
1566 1 8.919513086120672 4.787072592310651 24.450944893765218 0 0 0
247 1 2.25943962747692 32.943703360861285 17.764212080437954 0 0 0
248 1 2.2594402056134206 34.507890879729736 15.53525371711104 0 0 0
249 1 4.479401584645931 32.943701962982374 15.53529360704112 0 0 0
250 1 4.479404160187316 34.50790676126385 13.306328855029035 0 0 0
251 1 6.699348345715097 32.94370323341226 13.30633772602262 0 0 0
252 1 6.699363620383859 34.507939054495736 11.077382265109032 0 0 0
253 1 8.919260876267499 32.943720041772686 11.077379531889475 0 0 0
254 1 8.919262346790697 34.507914382805986 8.848425814704532 0 0 0
255 1 11.139176602620354 32.94371653792713 8.848383128760823 0 0 0
256 1 11.13922667702105 34.507902064072496 6.619465325354766 0 0 0
257 1 13.359176946182496 32.94371413141791 6.619406968001188 0 0 0
258 1 13.359150964572889 34.50788294897577 4.39050005659448 0 0 0
259 1 15.579146619430563 32.943706116063176 4.390400894088538 0 0 0
1565 1 6.699488206650102 6.351277758789132 24.450955898939 0 0 0
1718 1 22.239523169843437 1.6586370818770388 11.076961678605093 0 0 0
1719 1 22.23947003321953 3.2227929393650108 8.847976460684835 0 0 0
1562 1 24.459387582039337 4.786882369919574 4.389865754624038 0 0 0
264 1 2.2594350165991726 32.943677228365345 22.22204063451065 0 0 0
265 1 2.2594272141567897 34.50792883196477 19.993118107512363 0 0 0