LAMMPS data file via write_data, version 2 Aug 2023, timestep = 190, units = metal

7201 atoms
3 atom types

0.03959457379286816 53.3196052017867 xlo xhi
0.09424304047607775 37.63640895952413 ylo yhi
-22.326849776773752 75.68604955235325 zlo zhi

Masses

1 183.84
2 1.008
3 4.0026

Atoms # atomic

1 1 2.2595946740096613 36.07215230701971 0.004809315280001746 0 0 0
2 1 6.699591282716627 36.07215601727898 0.004806429476766231 0 0 0
3 1 11.139564160254643 36.07218375028219 0.004788098009081155 0 0 0
4 1 15.579491954200533 36.072267137670636 0.004732610056514351 0 0 0
5 1 20.019421144913554 36.072412116054245 0.004629015226422527 0 0 0
6 1 24.459490065477826 36.07258455383843 0.004488285563582533 0 0 0
1703 1 24.459547407448095 3.2225874900657505 2.1635777921907184 0 0 0
8 1 2.259593434407185 32.94363928219165 0.004808466060523481 0 0 0
9 1 4.47959209624153 34.507897388301075 0.004807575884194873 0 0 0
10 1 6.699577426257201 32.9436498086732 0.004799262828862416 0 0 0
11 1 8.919570256053099 34.50791651545189 0.004793596319793391 0 0 0
12 1 11.139510120025145 32.94370544733468 0.004755957896422589 0 0 0
13 1 13.35949782278267 34.50799264201337 0.0047430619873383125 0 0 0
14 1 15.57938072816008 32.943850136264636 0.004650586863526035 0 0 0
15 1 17.799390593606027 34.50815515140251 0.004638401930462282 0 0 0
16 1 20.019249000780263 32.944152199775594 0.004433866689331167 0 0 0
17 1 22.239357788028283 34.508434718813454 0.004440477176630192 0 0 0
18 1 24.45935548808579 32.944552709130434 0.004090244080295644 0 0 0
1682 1 22.239521046992053 1.6585039613984702 2.1636321390958213 0 0 0
20 1 2.2595917131064107 29.81512580193438 0.004807377508529407 0 0 0
21 1 4.479585519236296 31.379385953386844 0.004804330394680001 0 0 0
22 1 6.699558012701776 29.81514084207079 0.00478929242987052 0 0 0
23 1 8.91953212002002 31.37941910762335 0.004772838591443527 0 0 0
24 1 11.139437373352594 29.81521030345567 0.0047114870027431255 0 0 0
25 1 13.359395095553005 31.379528815241716 0.004674728522038245 0 0 0
26 1 15.579212604205095 29.815386392123113 0.0045141451051371115 0 0 0
27 1 17.799195455758362 31.37977820600302 0.004460681469255209 0 0 0
28 1 20.01896872912731 29.815795993921327 0.0040552825828049106 0 0 0
29 1 22.239109859439232 31.380258699853965 0.0039985254185605935 0 0 0
30 1 24.459080277312175 29.81645287734743 0.0032046000164923805 0 0 0
1681 1 20.019502284050088 3.2226551708908358 2.1636606594606063 0 0 0
32 1 2.2595897691606055 26.686611926311542 0.004806221422294396 0 0 0
33 1 4.47957787191522 28.25087290365415 0.004800782208776449 0 0 0
34 1 6.6995394462715465 26.686625840318197 0.004780460298155796 0 0 0
35 1 8.919491394420861 28.25090811403789 0.004750387615839378 0 0 0
36 1 11.139374011570712 26.686680611396188 0.004672003370258329 0 0 0
37 1 13.359281045191068 28.251015503620206 0.004591071155069371 0 0 0
38 1 15.579069961707846 26.686808092117808 0.004384491755405805 0 0 0
39 1 17.798973750546526 28.25127018825518 0.004209208148082034 0 0 0
40 1 20.018731899641057 26.687148245069224 0.0036903006499745465 0 0 0
41 1 22.238770392100896 28.251853459508077 0.003308905143130949 0 0 0
42 1 24.4587757541889 26.68790924917706 0.00196401110306187 0 0 0
1661 1 17.79951984654837 1.6585021970215144 2.163703784048937 0 0 0
44 1 2.2595882869554402 23.558097576537037 0.004805313238019493 0 0 0
45 1 4.479571077686163 25.122357999405157 0.004797746332913455 0 0 0
46 1 6.6995265643427295 23.5581057225793 0.004774878403842892 0 0 0
47 1 8.919461912455791 25.12238165625253 0.0047358348251026125 0 0 0
48 1 11.139341447447746 23.558128255096424 0.004658865475566831 0 0 0
49 1 13.359211980672539 25.1224350150931 0.004542187094106139 0 0 0
50 1 15.579041428080481 23.558159208502083 0.004363631839766288 0 0 0
51 1 17.79886545161853 25.122570770194002 0.004075711368529844 0 0 0
52 1 20.018733503177078 23.558263895131162 0.003738395962309357 0 0 0
53 1 22.238590265131847 25.122947709220146 0.0029143865842756254 0 0 0
54 1 24.45885986823634 23.558517078265943 0.002516891761041666 0 0 0
1660 1 15.579532042910806 3.2227122491459586 2.1637238084159875 0 0 0
56 1 2.2595877650236185 20.429582890583895 0.004804992162482475 0 0 0
57 1 4.479566996357532 21.993841439484626 0.004795884561877425 0 0 0
58 1 6.699522039798432 20.429582541909863 0.004772773564108658 0 0 0
59 1 8.919446276019535 21.99384914093668 0.004730502286781862 0 0 0
60 1 11.139331181870743 20.429580846539892 0.004660667409548486 0 0 0
61 1 13.359196135315338 21.993856425536993 0.004550260596870453 0 0 0
62 1 15.579060201225309 20.42957809604146 0.004411585118347318 0 0 0
63 1 17.79893049226744 21.993856764954817 0.004187090666995852 0 0 0
64 1 20.018903574091052 20.429583584230528 0.003991457552584832 0 0 0
65 1 22.23883894396596 21.99391523954061 0.003482970079575015 0 0 0
66 1 24.459054529271235 20.429594477913188 0.002915199227832402 0 0 0
1644 1 13.359560460937313 1.658500828458788 2.1637465992155605 0 0 0
68 1 2.25958835380559 17.301068212181697 0.004805344274522898 0 0 0
69 1 4.4795671315834 18.865324176142423 0.004795943099682582 0 0 0
70 1 6.699527276859655 17.30105957333119 0.004775229358274261 0 0 0
71 1 8.919447091926813 18.865314945550306 0.004731024597195783 0 0 0
72 1 11.139344441551296 17.301034789988837 0.004661090559444066 0 0 0
73 1 13.359199043678306 18.86530273707734 0.004552692771037517 0 0 0
74 1 15.579050129906589 17.301000537987147 0.004371531878717132 0 0 0
75 1 17.798937208774383 18.86530267136918 0.004195152138548816 0 0 0
76 1 20.018748653712276 17.30090721509307 0.003763344922389137 0 0 0
77 1 22.238847438020617 18.865265022592688 0.003504064517466439 0 0 0
78 1 24.458871223339745 17.3006750866671 0.0025611308388760906 0 0 0
1643 1 11.139574037559807 3.222742419562455 2.1637574134977617 0 0 0
80 1 2.259589882884062 14.172553886798712 0.004806273379680675 0 0 0
81 1 4.479571451739408 15.736807721044137 0.0047979133378212155 0 0 0
82 1 6.699540592219158 14.172539928647392 0.0047810461406130956 0 0 0
83 1 8.919463987838098 15.736783400055485 0.004737061321393526 0 0 0
84 1 11.139378549816522 14.172485016779655 0.0046749337975084465 0 0 0
85 1 13.359218877364347 15.736728319376658 0.004547647441126217 0 0 0
86 1 15.579081962413115 14.172358590338348 0.004394409629189273 0 0 0
87 1 17.798881235090374 15.736596211966699 0.004093189273331063 0 0 0
88 1 20.018752424697535 14.172031980935449 0.0037201233367763456 0 0 0
89 1 22.238609281148303 15.73623866724321 0.0029580257510829354 0 0 0
90 1 24.458789250395814 14.171285926215207 0.0020154528975439537 0 0 0
1631 1 8.919588476890057 1.6585001492329485 2.1637666742440897 0 0 0
92 1 2.259591840459474 11.044040048282731 0.004807435630374222 0 0 0
93 1 4.479578345995092 12.608292979732981 0.00480100349189616 0 0 0
94 1 6.699559116460003 11.044025312812993 0.004789851733024883 0 0 0
95 1 8.919493924453526 12.608258131658971 0.00475176791347342 0 0 0
96 1 11.139441478377401 11.043957103403972 0.0047138976446826734 0 0 0
97 1 13.359288547973554 12.608152178546908 0.0045962473637746045 0 0 0
98 1 15.579222691259195 11.043785126551912 0.00452147258302563 0 0 0
99 1 17.798989626234494 12.607904098747627 0.004224506553618734 0 0 0
100 1 20.018984090061515 11.04338740506806 0.004075072349583253 0 0 0
101 1 22.2387879023691 12.607337086831393 0.0033455925366909518 0 0 0
102 1 24.45908849849236 11.042740297055891 0.0032364112994884725 0 0 0
1630 1 6.699592064603766 3.2227544305375613 2.1637695779962853 0 0 0
104 1 2.259593514889591 7.915526578239354 0.004808504875530573 0 0 0
105 1 4.479585871738975 9.479780004865836 0.004804502075211826 0 0 0
106 1 6.69957814304029 7.915516415565368 0.004799622744602003 0 0 0
107 1 8.919534086917997 9.479747669444805 0.004773882704087006 0 0 0
108 1 11.13951286387079 7.915462269779354 0.004757475215147279 0 0 0
109 1 13.35940063912685 9.479640491649775 0.004678092071771912 0 0 0
110 1 15.579386580716507 7.915321300631674 0.004654472902311171 0 0 0
111 1 17.799206248052478 9.479398105995594 0.004469475396980201 0 0 0
112 1 20.019256965340062 7.915027919353155 0.004442861596170174 0 0 0
113 1 22.239119249240886 9.478928447054338 0.004017570674110467 0 0 0
114 1 24.45935796309103 7.91463308385695 0.0041029882380033775 0 0 0
1622 1 4.47959462811436 1.6584999761461183 2.163771380193284 0 0 0
116 1 2.2595946981996478 4.787013535212085 0.004809329205605246 0 0 0
117 1 4.479592267240609 6.351268541436883 0.004807662316706046 0 0 0
118 1 6.6995915288147225 4.787010010463897 0.00480656734962294 0 0 0
119 1 8.91957130798559 6.351250110964248 0.00479416133750009 0 0 0
120 1 11.1395653823461 4.786983370657169 0.004788794218212056 0 0 0
121 1 13.359500801521813 6.351176108169749 0.004744842274682781 0 0 0
122 1 15.579494539485575 4.786902845455658 0.004734312741401603 0 0 0
123 1 17.799395472804065 6.351018263414018 0.004642150345509296 0 0 0
124 1 20.019424148168035 4.786762967020931 0.004632015544557717 0 0 0
125 1 22.239361663254073 6.350746051918369 0.004447546991026494 0 0 0
126 1 24.459490791944148 4.786594080235518 0.004491965490246308 0 0 0
1621 1 2.2595946821247956 3.2227566178194165 2.163771709268364 0 0 0
128 1 2.2595950112370886 1.6584999547427783 0.004809545023303526 0 0 0
129 1 4.479595101836934 3.2227565385574937 0.004809199919617875 0 0 0
130 1 6.699595018728381 1.65849999040047 0.0048086080743731455 0 0 0
131 1 8.919590230139182 3.2227517869275193 0.004804963222113534 0 0 0
132 1 11.139583564393568 1.6585003727298313 0.004799727354904015 0 0 0
133 1 13.359556668610816 3.2227258710286373 0.004781041192938443 0 0 0
134 1 15.579532799016441 1.6585017612122246 0.004760989514350459 0 0 0
135 1 17.799487196807995 3.2226701733661267 0.004716841961425498 0 0 0
136 1 20.019476484151756 1.6585037659752002 0.004682623339929377 0 0 0
137 1 22.23947158117072 3.2225890802775616 0.004614724110161716 0 0 0
138 1 24.459527816351297 1.658505004191054 0.004589661436284684 0 0 0
1563 1 24.459506747214714 6.3507364516633515 2.163372264228533 0 0 0
140 1 4.479595073233018 0.0942433949715209 0.004809181023297821 0 0 0
141 1 8.919589958503295 0.09424848314939993 0.004804806858349615 0 0 0
142 1 13.359555676628808 0.09427612287504417 0.0047804583769693815 0 0 0
143 1 17.799485742367246 0.09433550410941217 0.004715756899237188 0 0 0
144 1 22.239470571578188 0.09442090381940774 0.004613060482920258 0 0 0
1542 1 22.239488839130708 4.786727233544059 2.163561378012612 0 0 0
1541 1 20.019423048341324 6.350951489535434 2.1635518596565837 0 0 0
1521 1 17.799485576505056 4.786874822409975 2.163673073744899 0 0 0
1520 1 15.579470809014206 6.351137785761247 2.1636807241404035 0 0 0
1240 1 15.579180316561429 12.608092662722722 2.1634303790672953 0 0 0
1504 1 13.359537417688061 4.786959678267155 2.1637344544789805 0 0 0
1224 1 13.359355026885444 11.043912110259688 2.1636149270426044 0 0 0
1503 1 11.139539952350791 6.351225981953975 2.1637412343435947 0 0 0
1491 1 8.919578662366163 4.7869998915248395 2.1637621974732792 0 0 0
1490 1 6.699581769031551 6.3512616050332245 2.1637654268712976 0 0 0
1223 1 11.139409367523218 12.608231166227345 2.163666483238238 0 0 0
1211 1 8.919506889440369 11.044004900228318 2.1637303546191067 0 0 0
1482 1 4.479592757896379 4.7870119182983295 2.163770566644353 0 0 0
148 1 4.479592627501406 36.07215399630661 2.1637705127814155 0 0 0
153 1 8.919578011987042 36.07216651338941 2.1637619117902327 0 0 0
160 1 13.359535909682233 36.07220820503575 2.163733707570922 0 0 0
169 1 17.799483475697404 36.07229647461731 2.163671371429049 0 0 0
180 1 22.23948749615426 36.07244847021799 2.1635585895146754 0 0 0
1481 1 2.259593548798263 6.351269618952632 2.163771147125135 0 0 0
1423 1 24.459373235155372 9.478859209173761 2.1627699968259226 0 0 0
221 1 2.2595934713002364 34.507896243606 2.1637711207034758 0 0 0
222 1 4.479586195505056 32.94364275440242 2.163768289751243 0 0 0
230 1 6.6995812094110905 34.50790454924056 2.1637652123908278 0 0 0
231 1 8.919546070791665 32.943668316835186 2.163748577979295 0 0 0
243 1 11.139538174962421 34.50794121818103 2.163740441331597 0 0 0
244 1 13.359459494067826 32.943745224124775 2.1636885312626384 0 0 0
260 1 15.57946759936728 34.50803219980174 2.1636786513720625 0 0 0
261 1 17.799356073373 32.94392507094493 2.1635510374749582 0 0 0
281 1 20.01941955740604 34.50822427228217 2.1635474631954588 0 0 0
282 1 22.239370290208726 32.9442303106804 2.1632770238059478 0 0 0
303 1 24.459506065103398 34.50844156916111 2.1633664201453193 0 0 0
1402 1 22.23937423381547 7.914949211948192 2.163286965477073 0 0 0
1401 1 20.019243377281818 9.479275648228489 2.1632743995369443 0 0 0
361 1 2.259591513088733 31.379383050696177 2.1637703264954267 0 0 0
362 1 4.479577504866389 29.815130304735618 2.1637654411268112 0 0 0
370 1 6.699561714399046 31.379396523818798 2.1637579822852646 0 0 0
371 1 8.919504477485756 29.815161581855318 2.163729310297283 0 0 0
383 1 11.139472888099437 31.37945117242857 2.1637062207408913 0 0 0
384 1 13.359348603250922 29.815256438199942 2.1636111372110225 0 0 0
400 1 15.579327141766273 31.379592807669106 2.163571359406932 0 0 0
401 1 17.799156715601306 29.815493444358506 2.163321573021225 0 0 0
421 1 20.019235432226214 31.379903322325873 2.1632623839705483 0 0 0
422 1 22.239147590534937 29.815952061657338 2.162686256991624 0 0 0
443 1 24.459368554954537 31.38032413539599 2.1627499003644326 0 0 0
1381 1 17.79936212819566 7.915248875759273 2.1635560671109193 0 0 0
1380 1 15.579334268818345 9.479578431706086 2.1635761332659875 0 0 0
501 1 2.25958905757001 28.250869388368233 2.16376945790006 0 0 0
502 1 4.479568814231784 26.686616053359472 2.1637630302882354 0 0 0
510 1 6.699541091955059 28.250883314104193 2.1637500213025547 0 0 0
511 1 8.919472325279944 26.686639885815037 2.1637135146082027 0 0 0
523 1 11.139404850221332 28.250935420461236 2.1636640327052157 0 0 0
524 1 13.35926449657867 26.686704117591717 2.1635388928572143 0 0 0
540 1 15.579169585720898 28.251077024794558 2.163422258697041 0 0 0
541 1 17.798987325314208 26.686924739205605 2.1630841024934053 0 0 0
561 1 20.01899020950447 28.251459450551906 2.1628336668157773 0 0 0
562 1 22.23886367682424 26.68753946924904 2.161949364083584 0 0 0
583 1 24.459140336843603 28.252176541056933 2.161572098454852 0 0 0
1364 1 13.359463248926733 7.91542343815175 2.1636905589253055 0 0 0
1363 1 11.13947621874419 9.479716253387389 2.163707853518692 0 0 0
641 1 2.259586776863223 25.122355159419005 2.163768630945127 0 0 0
642 1 4.47956208558618 23.55810008094556 2.163761080278088 0 0 0
650 1 6.6995248306118595 25.12236521986196 2.163744673381161 0 0 0
651 1 8.919452204298828 23.558112151830052 2.163705769456691 0 0 0
663 1 11.139369874090894 25.12239171305374 2.163641463515108 0 0 0
664 1 13.359252168445472 23.558128893964525 2.1635270843027095 0 0 0
680 1 15.579111165097695 25.122465636675933 2.163334818983337 0 0 0
681 1 17.79901698183454 23.55821953578859 2.1630773759395745 0 0 0
701 1 20.018836505807737 25.122812203364997 2.162577897967753 0 0 0
702 1 22.23876914586787 23.5585948045129 2.1619865869898076 0 0 0
723 1 24.45878225494474 25.123815415414498 2.160399588000809 0 0 0
1351 1 8.919547631312037 7.91549832488332 2.163749208762743 0 0 0
1350 1 6.699562753203678 9.47976966673379 2.163758362484484 0 0 0
781 1 2.2595854525850343 21.993840374987105 2.163768168535137 0 0 0
782 1 4.479559722959989 20.42958279470697 2.1637603938228827 0 0 0
790 1 6.699515394037023 21.993843949954364 2.1637414620783924 0 0 0
791 1 8.919444977190059 20.429582087244295 2.163704590873082 0 0 0
1797 1 24.459547266038186 0.09442137647442389 2.1635766726508208 0 0 0
803 1 11.13935438794905 21.993849072177753 2.163640014024519 0 0 0
804 1 13.359259770642593 20.429580386969647 2.163539241923627 0 0 0
820 1 15.579164209663503 21.99385893901996 2.1633820094496232 0 0 0
821 1 17.79914323524871 20.429585636513693 2.163229426560717 0 0 0
841 1 20.019078531531974 21.99390987552419 2.1628965598088947 0 0 0
842 1 22.239305817012454 20.429601901281448 2.162670698084423 0 0 0
863 1 24.459251184451315 21.99401891759117 2.161680751597856 0 0 0
1342 1 4.479586531959435 7.915523208992547 2.163768403059455 0 0 0
1341 1 2.2595916614913127 9.479782813363228 2.163770369319947 0 0 0
921 1 2.259585500479326 18.865325396151658 2.1637681797135286 0 0 0
1786 1 20.01950136958661 0.09435152582459327 2.1636595817819453 0 0 0
922 1 4.479562391711663 17.30106555694402 2.163761152553307 0 0 0
930 1 6.699515753512703 18.865321224352513 2.163741589161931 0 0 0
931 1 8.919453698687336 17.301052485614345 2.1637066243260765 0 0 0
943 1 11.139355985456719 18.865313630017003 2.1636411752192912 0 0 0
944 1 13.359257630738977 17.301033664988573 2.1635312724218916 0 0 0
960 1 15.579168836784481 18.865303863871233 2.163386302902043 0 0 0
961 1 17.79902755271004 17.300952051536918 2.163091380268595 0 0 0
981 1 20.019085092058834 18.865276455764437 2.1629100945132342 0 0 0
982 1 22.238779812724886 17.300604822736478 2.162019807739302 0 0 0
1776 1 15.579531187067312 0.09429073433488849 2.163723323725518 0 0 0
1003 1 24.459255034697712 18.865195389826543 2.1617034576182155 0 0 0
1283 1 24.45915070364245 12.607013971514103 2.1616130065950743 0 0 0
1262 1 22.239157812551095 11.043232606047619 2.1627121716718833 0 0 0
1061 1 2.2595869016876335 15.736810631525238 2.163768658706989 0 0 0
1062 1 4.479569333818199 14.172549727595262 2.16376317553806 0 0 0
1070 1 6.699525850880127 15.736800285064568 2.163745066583979 0 0 0
1071 1 8.91947471988061 14.172525734025667 2.1637146617425422 0 0 0
1768 1 11.139573520996597 0.09425845910607063 2.1637571763136365 0 0 0
1083 1 11.13937386854618 15.736772900358266 2.1636440538324058 0 0 0
1084 1 13.359271963699282 14.17246196972735 2.1635440612859878 0 0 0
1100 1 15.57912195662478 15.73670056107058 2.1633441729554908 0 0 0
1101 1 17.799001843741003 14.172249390291842 2.1631012906916727 0 0 0
1121 1 20.018851210780564 15.736371495240014 2.1626066477419923 0 0 0
1762 1 6.69959192809472 0.09424564883013596 2.1637695123305334 0 0 0
1122 1 22.238878166835335 14.171650923635596 2.1619894620905638 0 0 0
1143 1 24.458792780421806 15.735386734011303 2.160447860879768 0 0 0
1261 1 20.019004613172118 12.60772271774016 2.162858333169337 0 0 0
1758 1 2.2595946646314964 0.09424330653897073 2.1637717010328696 0 0 0
1241 1 17.799167489243477 11.043681289752051 2.163332350652337 0 0 0
1201 1 2.259589220658703 12.608296439072495 2.1637694968663848 0 0 0
1202 1 4.479578041004893 11.044035627735857 2.1637656112977215 0 0 0
1210 1 6.699542376696059 12.608282623894242 2.163750504720186 0 0 0
724 1 26.679458889811553 23.559139612527545 2.160297422042946 0 0 0
584 1 26.679466136097037 26.68912777951648 2.1593587362663174 0 0 0
1144 1 26.679472256714366 14.170068689441807 2.1594073096879693 0 0 0
3787 1 26.679271594109792 25.123441563726217 0.0014939242331354497 0 0 0
3832 1 26.679275584436542 15.735754749101238 0.0015488370094231987 0 0 0
304 1 26.679570505129 32.94447886297536 2.163055930469378 0 0 0
1004 1 26.67946279859248 17.300071396867175 2.160340004417426 0 0 0
1424 1 26.679570518160908 7.9147013448394885 2.1630669582809334 0 0 0
1197 1 0.039597827912984135 11.044039574789451 2.163770220051594 0 0 0
3892 1 26.679596848829124 3.222534103440001 0.004551087979155318 0 0 0
3877 1 26.679585600254498 6.350547308528207 0.004303396838352757 0 0 0
19 1 0.03959610148642371 31.37938248973391 0.004808272496730004 0 0 0
3802 1 26.67938381693328 21.99413219668114 0.002239355077832027 0 0 0
637 1 0.03960108478133029 23.5580977298578 2.163768942603512 0 0 0
497 1 0.03959963706509686 26.686612236154318 2.1637695348388255 0 0 0
444 1 26.679495852543727 29.81659538664854 2.1618188445089768 0 0 0
357 1 0.03959780480709813 29.81512625303144 2.163770210414024 0 0 0
777 1 0.03960165058098078 20.429582907344813 2.1637687021647367 0 0 0
31 1 0.0395976893717562 28.250868899403628 0.004807167357293276 0 0 0
43 1 0.03959887377903753 25.122354662336367 0.004806228420116928 0 0 0
217 1 0.03959586662152511 32.94363949191841 2.1637710005898025 0 0 0
917 1 0.03960109747404653 17.301068086688375 2.163768948471927 0 0 0
55 1 0.03959965432538425 21.993840196882854 0.004805624706293039 0 0 0
3862 1 26.679520848507046 9.47844885893276 0.0035182490148734564 0 0 0
3847 1 26.679396092294645 12.606468775082332 0.001822644359785176 0 0 0
1337 1 0.03959588606913335 7.9155263441042285 2.1637710100632708 0 0 0
3817 1 26.679385442134222 18.865060772863746 0.0022655772668384484 0 0 0
1284 1 26.679499331939493 11.042590555443681 2.161849442195139 0 0 0
3772 1 26.679394020270514 28.252727222141488 0.0017785663352842963 0 0 0
3757 1 26.67952179749787 31.380741403331644 0.0034971569886934795 0 0 0
3742 1 26.679587219039867 34.50863426824755 0.004296817748804834 0 0 0
1057 1 0.039599657967298724 14.172553584745508 2.1637695440243476 0 0 0
1617 1 0.039594601807230546 1.6584999560196676 2.163771848479474 0 0 0
79 1 0.03959888491772334 15.736811159010067 0.004806238404849413 0 0 0
91 1 0.03959770405410371 12.608296924766112 0.004807180387437645 0 0 0
67 1 0.0395996586173081 18.8653256231323 0.004805628536981162 0 0 0
103 1 0.03959611684754094 9.47978334184051 0.004808285765783863 0 0 0
7 1 0.03959472559107269 34.50789554070532 0.004809178133852767 0 0 0
191 1 26.679598212185105 36.072536810493446 2.163495743883508 0 0 0
1564 1 26.67959756101969 4.786638848902272 2.163497975631689 0 0 0
1704 1 26.67959907991099 1.6585040266571596 2.1635923945734645 0 0 0
115 1 0.03959473577653938 6.351270293383646 0.004809186450680104 0 0 0
145 1 0.03959471775132073 36.07215248815501 2.163771625562695 0 0 0
1477 1 0.039594726743743536 4.787013347195167 2.1637716312824407 0 0 0
3907 1 26.679597329763034 0.09447642076025851 0.004549735209517754 0 0 0
1598 1 15.579577893119906 6.351245772912187 24.450686609872267 0 0 0
1596 1 24.459513751993686 6.350546241469894 11.07718078397713 0 0 0
147 1 2.25959332112706 36.07215336574135 4.39035393140497 0 0 0
1595 1 24.459555102931134 4.786613031790555 13.306136362315826 0 0 0
1594 1 22.239443740774913 6.350709697149567 13.306161459867301 0 0 0
150 1 2.2595920860719927 36.072153872973146 8.848160188890814 0 0 0
151 1 4.479586385619972 36.07215729728649 6.619252328666256 0 0 0
152 1 6.699580590199695 36.072162634321025 4.3903496861461635 0 0 0
1593 1 22.23950207065154 4.786723028473948 15.535072470429869 0 0 0
1592 1 20.019436089930938 6.350925580104551 15.535079761551453 0 0 0
155 1 2.259592840350671 36.07215363182606 13.305996072286776 0 0 0
156 1 4.479585468922121 36.072157867676005 11.077075023430531 0 0 0
157 1 6.699567789054834 36.07216904576401 8.848159696378321 0 0 0
158 1 8.919547129818824 36.07218596244954 6.6192452719631545 0 0 0
159 1 11.13953651338619 36.07220018720362 4.390332251838033 0 0 0
1591 1 20.019504735748875 4.786849576164881 17.763963911681778 0 0 0
1590 1 17.79947910556333 6.35109689491625 17.763959916341943 0 0 0
162 1 2.2595944738856835 36.072152542779136 17.763856205964142 0 0 0
163 1 4.479591409668754 36.07215504376093 15.53492484502208 0 0 0
164 1 6.6995778068562 36.072164937972424 13.306000081961104 0 0 0
165 1 8.919543260258653 36.07218970762939 11.077080582634828 0 0 0
166 1 11.139495313409652 36.07222874430385 8.84815807254074 0 0 0
167 1 13.359463229922953 36.07226448776159 6.619227794753111 0 0 0
168 1 15.57946808554847 36.07227999628886 4.390295549542689 0 0 0
1589 1 17.799538458035148 4.786931882727498 19.99285290845741 0 0 0
1588 1 15.57953159198125 6.351191502739642 19.992848140262343 0 0 0
171 1 2.2595949651717313 36.07215210843934 22.22172743624014 0 0 0
172 1 4.479594774033138 36.07215269326523 19.992791568340316 0 0 0
173 1 6.699590797887163 36.07215660673598 17.76385858450878 0 0 0
174 1 8.919573296713272 36.07217185145954 15.534933266757276 0 0 0
175 1 11.139529264256387 36.07220928352763 13.306015848632342 0 0 0
176 1 13.359458701406627 36.07227461842627 11.077093657936995 0 0 0
177 1 15.579396547690058 36.07235914331999 8.84815512774768 0 0 0
178 1 17.799390394995385 36.07240838212762 6.61919496651476 0 0 0
179 1 20.019440181467797 36.072419583986665 4.390229024643959 0 0 0
1587 1 15.579574180571502 4.786984090254542 22.221751305740828 0 0 0
181 1 4.47959539627151 36.07215211283944 24.450663819477946 0 0 0
182 1 6.699595123554478 36.07215284587055 22.221727966216466 0 0 0
183 1 8.919590477986116 36.072157967204795 19.992795121166786 0 0 0
184 1 11.139570274495249 36.072178276388016 17.763871555083487 0 0 0
185 1 13.359526009753004 36.07222233944392 15.534958959682184 0 0 0
186 1 15.579460514112847 36.07230329285335 13.306046127120855 0 0 0
187 1 17.799398946225764 36.072420627083126 11.077117416344 0 0 0
188 1 20.019381826915232 36.07254797255029 8.848152602747945 0 0 0
189 1 22.2394342468468 36.07259210981839 6.619154792201678 0 0 0
190 1 24.45952886123551 36.07255446371789 4.390155354772482 0 0 0
1586 1 13.359573415649818 6.351244446537504 22.221748622663167 0 0 0
192 1 8.919595570944608 36.07215291854858 24.450664439351378 0 0 0
193 1 11.13959080246507 36.07215873820486 22.221732371391358 0 0 0
194 1 13.35957020968796 36.07218198209208 19.992812048833 0 0 0
195 1 15.5795272722185 36.07223323887476 17.763906341453257 0 0 0
196 1 17.799480555760955 36.07231297298772 15.535006773060793 0 0 0
197 1 20.019445201268127 36.07245212081639 13.306098335804236 0 0 0
198 1 22.239463041510742 36.072589115079566 11.077147987553529 0 0 0
199 1 24.459522061162513 36.07267894754754 8.848152689008318 0 0 0
1585 1 13.35959191400965 4.787007205529656 24.45066911022653 0 0 0
201 1 13.359591845564397 36.07215870530827 24.450669197136698 0 0 0
202 1 15.579573934586739 36.07218211416062 22.221751665265522 0 0 0
203 1 17.799538072687458 36.072235025710725 19.99285374239944 0 0 0
204 1 20.019504544169347 36.07231872012652 17.76396540141783 0 0 0
205 1 22.239502114881628 36.07244719539124 15.53507420751957 0 0 0
206 1 24.45955558070122 36.072557810627565 13.306137548863928 0 0 0
1584 1 11.139591663682399 6.351265179537238 24.45066841994777 0 0 0
208 1 17.7995800042089 36.07217879084393 24.450688196220764 0 0 0
209 1 20.019555485920545 36.07222734930473 22.221793438570867 0 0 0
210 1 22.239539948253633 36.072313770678264 19.992914654920174 0 0 0
211 1 24.459559308906556 36.07241949641824 17.76402700385838 0 0 0
1599 1 17.7995801501203 4.786987324487024 24.450687870281758 0 0 0
213 1 22.239574084872885 36.07221516423814 24.450725226355644 0 0 0
214 1 24.459576888661537 36.072287996873435 22.221849331070597 0 0 0
1600 1 17.799545175993728 6.3511950557794945 22.22179180812005 0 0 0
1581 1 24.459460492042908 6.35051128430225 6.619077051412724 0 0 0
1580 1 24.45952185002211 4.786494668663429 8.84815209870075 0 0 0
1579 1 22.239351031690894 6.350522071168016 8.848133275703479 0 0 0
1578 1 22.239463180664124 4.786584140294279 11.077146564212308 0 0 0
220 1 2.259591072639584 32.943640459729394 4.390353345949709 0 0 0
1577 1 20.019328097905465 6.350717727568655 11.077148904351258 0 0 0
1576 1 20.01944571751653 4.78671960711496 13.306096617022487 0 0 0
1575 1 17.799372205752597 6.3509375446614635 13.306094159175114 0 0 0
1574 1 17.799481152050532 4.786855797381497 15.535005568477311 0 0 0
225 1 2.2595892070704235 32.94364111773685 8.84816009198192 0 0 0
226 1 2.2595912878340307 34.50789743366652 6.61925307637443 0 0 0
227 1 4.47957526175447 32.94364749935378 6.619250977230088 0 0 0
228 1 4.479585345681931 34.50790092985631 4.3903518755260045 0 0 0
229 1 6.699558145516631 32.94365843860653 4.390344166351299 0 0 0
1573 1 15.579459811792782 6.351108702801459 15.534998968113799 0 0 0
1572 1 15.579527822622945 4.78693377124827 17.763905575009684 0 0 0
1571 1 13.35952569973146 6.351197286792246 17.76389929676461 0 0 0
1570 1 13.35957054113849 4.786984270091697 19.992811705521042 0 0 0
234 1 2.2595900445332386 32.94364089561492 13.30599648133832 0 0 0
235 1 2.2595908713284145 34.50789761613358 11.077074395526394 0 0 0
236 1 4.479573394541992 32.94364841401757 11.077075656811788 0 0 0
237 1 4.4795790251444085 34.50790366443086 8.848159874715133 0 0 0
238 1 6.699536705173885 32.94366851313344 8.848158571271732 0 0 0
239 1 6.699559960132045 34.5079166277576 6.619248223027696 0 0 0
240 1 8.91949074752952 32.943700036144975 6.6192364748051515 0 0 0
241 1 8.919543651084638 34.507931582362865 4.3903379709346115 0 0 0
242 1 11.13946503802474 32.94372557952005 4.390310128841008 0 0 0
1569 1 11.139571954146033 6.351246272188027 19.992808250264826 0 0 0
1568 1 11.139590890042763 4.7870071859874965 22.22173228285084 0 0 0
1567 1 8.91959106623423 6.351265561325086 22.22173133376789 0 0 0
1566 1 8.919595584280886 4.787012922047741 24.45066442613569 0 0 0
247 1 2.2595925950603224 32.9436397649566 17.76385690158869 0 0 0
248 1 2.2595925485274924 34.50789686717238 15.53492421520799 0 0 0
249 1 4.479582147382439 32.9436453646069 15.534927000854456 0 0 0
250 1 4.479582985947102 34.50790243400526 13.30599792080314 0 0 0
251 1 6.699549309833079 32.9436642219031 13.306004629292838 0 0 0
252 1 6.699556329770392 34.50791920829268 11.077077902615512 0 0 0
253 1 8.919479321989883 32.94370856192167 11.077085156487733 0 0 0
254 1 8.919508666940372 34.50795320142752 8.848158104758488 0 0 0
255 1 11.139381532030216 32.9437825928804 8.848153628760866 0 0 0
256 1 11.139467932908277 34.50799151374352 6.619231428873707 0 0 0
257 1 13.359319924565177 32.94385117279251 6.619201059499603 0 0 0
258 1 13.35945949908029 34.508013555077504 4.390302279359763 0 0 0
259 1 15.579330691032254 32.94387958475873 4.390234677397424 0 0 0
1565 1 6.699595221067614 6.35127003049838 24.450664306641276 0 0 0
1718 1 22.239495378184976 1.6585031553242673 11.077131672499013 0 0 0
1719 1 22.239472322021513 3.2225288176431235 8.848156071118762 0 0 0
1562 1 24.459528719894625 4.786620703078921 4.390156714278914 0 0 0
264 1 2.2595945450499935 32.943638588135364 22.221727699854863 0 0 0
265 1 2.2595944846749103 34.507895590522125 19.992791456738125 0 0 0
266 1 4.479591552427902 32.943640778902655 19.992793052220627 0 0 0
267 1 4.479591275359646 34.507898123401205 17.763857690374156 0 0 0
268 1 6.699576204725013 32.943651009298314 17.763864165404314 0 0 0