LAMMPS data file via write_data, version 2 Aug 2023, timestep = 5200, units = metal

7201 atoms
3 atom types

0.0395856133992787 53.319614162180116 xlo xhi
0.09416328975359776 37.63648871024677 ylo yhi
-22.32547103974044 75.68467081532009 zlo zhi

Masses

1 183.84
2 1.008
3 4.0026

Atoms # atomic

1 1 2.2598533272405708 36.07239726116087 0.00647283757193392 0 0 0
2 1 6.699071098195339 36.07247528136388 0.006418042380558844 0 0 0
3 1 11.138594089721899 36.07256783296338 0.0058509708835091925 0 0 0
4 1 15.57866826194454 36.07282595417335 0.00543697292801038 0 0 0
5 1 20.018804658617903 36.07304575057901 0.005454847233294265 0 0 0
6 1 24.459362106635236 36.07313687358009 0.005070377365987403 0 0 0
1703 1 24.45961304299085 3.222360486235444 2.1643321259566735 0 0 0
8 1 2.2598162787565723 32.943825307024625 0.0061563533171060045 0 0 0
9 1 4.479388105411869 34.50821080487584 0.006312168189327929 0 0 0
10 1 6.69902604829191 32.944101794512406 0.00606417571861823 0 0 0
11 1 8.918790832481177 34.508364817259945 0.0061580979057449395 0 0 0
12 1 11.138537483714043 32.94435016675095 0.005844434702674978 0 0 0
13 1 13.358453988626684 34.508664703245756 0.005484400745499658 0 0 0
14 1 15.578256838165949 32.94475542149132 0.005292094747177683 0 0 0
15 1 17.79851686466849 34.50897484101993 0.005400357903637843 0 0 0
16 1 20.018281466532514 32.94519342367954 0.005075369114715516 0 0 0
17 1 22.238714993670154 34.50926031070016 0.005066751003347628 0 0 0
18 1 24.458639881390198 32.945606926457664 0.004781179138790179 0 0 0
1682 1 22.239538744201013 1.6584320671529993 2.1644097269976177 0 0 0
20 1 2.2596907472049064 29.81521403227518 0.005928427835109628 0 0 0
21 1 4.479409105726708 31.379608789058647 0.005902378046984975 0 0 0
22 1 6.699011756176071 29.815461190326356 0.005591588579205189 0 0 0
23 1 8.9187116181211 31.38002081032735 0.005754018287186918 0 0 0
24 1 11.138480982312755 29.81594019457611 0.005529490713628479 0 0 0
25 1 13.358222743705804 31.380401669748693 0.00560935154856843 0 0 0
26 1 15.577733603136329 29.81652500454732 0.005430667833617315 0 0 0
27 1 17.797925910332626 31.38092876406825 0.005151591965990385 0 0 0
28 1 20.01731657135916 29.817216627682928 0.0049330470240153265 0 0 0
29 1 22.237959160438713 31.381488640384795 0.004743140407827194 0 0 0
30 1 24.457732419010952 29.81812379975699 0.004237782278409069 0 0 0
1681 1 20.019227167044217 3.2223254297371753 2.1644875979677134 0 0 0
32 1 2.2596219853542183 26.68663968296738 0.0056382227673227306 0 0 0
33 1 4.479370040071334 28.250974185814023 0.005732115252901883 0 0 0
34 1 6.699034895792857 26.686760852727932 0.005473700863520016 0 0 0
35 1 8.918704261723375 28.2513748868934 0.005275159857051071 0 0 0
36 1 11.138368997042177 26.68727219876047 0.005283809716532292 0 0 0
37 1 13.357931473557182 28.25194104660841 0.005476442196355357 0 0 0
38 1 15.577173633610828 26.68802171011262 0.005190797559376441 0 0 0
39 1 17.797007507527116 28.25275219394621 0.005123305483686608 0 0 0
40 1 20.015867030574025 26.68906660764799 0.004644033153113114 0 0 0
41 1 22.236600904633132 28.253719985283876 0.0044619890445077 0 0 0
42 1 24.45622315509589 26.69088220358778 0.003247685608635985 0 0 0
1661 1 17.799040953883384 1.6584370772966723 2.1644315614851806 0 0 0
44 1 2.2594962264059695 23.558081014918994 0.005276286025918579 0 0 0
45 1 4.479329345131061 25.122367088152917 0.005467863572493741 0 0 0
46 1 6.699109945504421 23.558151422458383 0.005313822521101195 0 0 0
47 1 8.918759481192144 25.1226231905782 0.005271371610236971 0 0 0
48 1 11.138388729398427 23.558480341923904 0.005360394877424401 0 0 0
49 1 13.357796945614696 25.123149906448244 0.005255398767660456 0 0 0
50 1 15.57683550049151 23.55887342038915 0.005033545184902583 0 0 0
51 1 17.79585065283695 25.124068412829743 0.00479245069063453 0 0 0
52 1 20.013813873634287 23.56015114986272 0.004167559502298419 0 0 0
53 1 22.23431780172855 25.125753206247822 0.0036836206428249117 0 0 0
54 1 24.45254621406507 23.562734561356496 0.0016609957088875426 0 0 0
1660 1 15.578834344019702 3.2223755357242037 2.1644546176856743 0 0 0
56 1 2.2594166870957717 20.4295824778689 0.005097046365160227 0 0 0
57 1 4.479285135041541 21.993838445042137 0.005098182526416026 0 0 0
58 1 6.699166641360315 20.429590232856132 0.0050663841400262035 0 0 0
59 1 8.918916804413694 21.99396360964931 0.005200901441614092 0 0 0
60 1 11.138384118635614 20.429589176687912 0.00532360818910763 0 0 0
61 1 13.35762768881739 21.994154136026868 0.005281009547906211 0 0 0
62 1 15.576630956627959 20.4295904258785 0.005154922010121891 0 0 0
63 1 17.795485542775953 21.994401733229125 0.004909852441531669 0 0 0
64 1 20.0135604503855 20.429586366781134 0.004869063307142285 0 0 0
65 1 22.23090810911798 21.995570279837565 0.0033602518324699336 0 0 0
66 1 24.450221437828468 20.429597382460635 0.00915753508418065 0 0 0
1644 1 13.358873769380068 1.6584231309395898 2.164631372363598 0 0 0
68 1 2.2594959870766225 17.301085031243474 0.005254560076263354 0 0 0
69 1 4.479292141430277 18.865329548736156 0.005083632842044438 0 0 0
70 1 6.699101906631722 17.301015369151802 0.0053138914794214455 0 0 0
71 1 8.918903647591545 18.86521555596949 0.005208280818125556 0 0 0
72 1 11.138375381013363 17.30071213069025 0.005368052251805824 0 0 0
73 1 13.357631551589234 18.865029446190302 0.005287314730965292 0 0 0
74 1 15.576842651612592 17.300303727451812 0.005028272108323142 0 0 0
75 1 17.79548646752962 18.864769575364292 0.004921669520474191 0 0 0
76 1 20.013832865562026 17.299030649893165 0.0041860472398605126 0 0 0
77 1 22.23092848844359 18.86361485509498 0.003359845833134064 0 0 0
78 1 24.45254745160973 17.29645339497624 0.0017048667714341973 0 0 0
1643 1 11.138891796129762 3.2225524819406624 2.164948038388043 0 0 0
80 1 2.259615621295275 14.172516706937447 0.005644352427090074 0 0 0
81 1 4.4793257759105405 15.736786183850631 0.005464370191444289 0 0 0
82 1 6.699027579110969 14.172405893954013 0.005494807647264616 0 0 0
83 1 8.918747043964453 15.736558425403201 0.005280021117899585 0 0 0
84 1 11.138356185833894 14.171921804325331 0.005274081401036897 0 0 0
85 1 13.357785545586593 15.73605201909664 0.005251006296130238 0 0 0
86 1 15.5771769316756 14.171168435193799 0.005164746071458132 0 0 0
87 1 17.7958745191567 15.735119237092558 0.004781257786261843 0 0 0
88 1 20.015882405487048 14.170104549385128 0.004647439490255176 0 0 0
89 1 22.234324777319628 15.73343044052102 0.003672092012929875 0 0 0
90 1 24.456226298242626 14.16830581281177 0.003223917875460212 0 0 0
1631 1 8.919083764373894 1.65842666799422 2.1652958729690535 0 0 0
92 1 2.259689215321095 11.043939225579265 0.005955622141073752 0 0 0
93 1 4.479354653383606 12.608186493907256 0.005757205253948442 0 0 0
94 1 6.699003395714556 11.04372599115969 0.005609217372189547 0 0 0
95 1 8.918693763042118 12.607810279293723 0.005287917706732405 0 0 0
96 1 11.138480817912075 11.043252140087358 0.005525142731137926 0 0 0
97 1 13.357924941044708 12.607258016617967 0.0054602118342157195 0 0 0
98 1 15.577723535926257 11.042654683728397 0.005422720240548101 0 0 0
99 1 17.797010553894896 12.606420619190052 0.005082936876119298 0 0 0
100 1 20.017324649491176 11.041949709987374 0.004908615916865596 0 0 0
101 1 22.23661011328056 12.605445284274262 0.0044664109390623605 0 0 0
102 1 24.457746915350906 11.041039184521098 0.004229631800438874 0 0 0
1630 1 6.699290342783691 3.2226270716046863 2.165518994509629 0 0 0
104 1 2.2598183814453687 7.915347390116344 0.0061702474276081765 0 0 0
105 1 4.4794074372062305 9.47956281100277 0.005917796696029739 0 0 0
106 1 6.699040790200568 7.915089251984715 0.006053074285555987 0 0 0
107 1 8.918705310303144 9.479179270386876 0.005758423983960298 0 0 0
108 1 11.138536746469862 7.914845574586649 0.005847806380083069 0 0 0
109 1 13.358224917809741 9.478787980876183 0.005603987052729041 0 0 0
110 1 15.578239748527206 7.914417507208742 0.005305626063988059 0 0 0
111 1 17.797911804428168 9.47824156892561 0.005152158448822541 0 0 0
112 1 20.018273407455567 7.9139791226234255 0.0050825856035325665 0 0 0
113 1 22.23796224237301 9.477676652595585 0.004750545868840549 0 0 0
114 1 24.458640921001095 7.913550924671296 0.004804744794387701 0 0 0
1622 1 4.479503759455922 1.6584370399363855 2.16573099176002 0 0 0
116 1 2.259853002307336 4.786795831196258 0.006472537661715714 0 0 0
117 1 4.479396313787177 6.350973942852595 0.006310140159468969 0 0 0
118 1 6.699092189848112 4.786705530086987 0.006392584415969071 0 0 0
119 1 8.918800650725933 6.350823333344369 0.006140716109779594 0 0 0
120 1 11.138591066263535 4.786612621547945 0.005870009436507491 0 0 0
121 1 13.358437143915918 6.350513900214582 0.005499250590415849 0 0 0
122 1 15.578645846643212 4.786358916912949 0.00542719371361182 0 0 0
123 1 17.7985070035425 6.3502100890163025 0.005415491584908316 0 0 0
124 1 20.018810228087258 4.786148677359434 0.005465829140600336 0 0 0
125 1 22.238715275663797 6.349918400741713 0.005092024959595701 0 0 0
126 1 24.459366843404272 4.7860397828778645 0.005101782369025792 0 0 0
1621 1 2.2597476178253477 3.2226839382969183 2.165600169353922 0 0 0
128 1 2.2598161714744625 1.6584414505913483 0.006639109017566784 0 0 0
129 1 4.4794682686657525 3.2225647071260584 0.006661801633123345 0 0 0
130 1 6.699133953845213 1.6584237178207537 0.006484142797934315 0 0 0
131 1 8.918854557116912 3.222545073428468 0.006200550922813074 0 0 0
132 1 11.138642654812855 1.6584226703620522 0.005899451715952977 0 0 0
133 1 13.358546068610748 3.222489720143226 0.005571834061031481 0 0 0
134 1 15.578668382214143 1.658432298796875 0.005340749418059255 0 0 0
135 1 17.798863206630934 3.222303169099286 0.005404837480493933 0 0 0
136 1 20.019108069843906 1.6584357684732516 0.005385377584540276 0 0 0
137 1 22.239289865798717 3.2222787858438235 0.0053193853000541025 0 0 0
138 1 24.45962140171414 1.6584289497299507 0.005295648186127112 0 0 0
1563 1 24.45919728366802 6.350049708626752 2.16409672367756 0 0 0
140 1 4.4794597529099285 0.09430818257638407 0.006666404749216376 0 0 0
141 1 8.918844887226433 0.09429724576482162 0.006210847775069228 0 0 0
142 1 13.358559583609386 0.0943605842972563 0.005557688721091364 0 0 0
143 1 17.798865174982677 0.094570165617327 0.0054195297979130605 0 0 0
144 1 22.23928306701637 0.09458799274268159 0.005313022309073474 0 0 0
1542 1 22.2392422798995 4.7862285379332805 2.1643012626425535 0 0 0
1541 1 20.01882965986403 6.350288437653182 2.164357685307819 0 0 0
1521 1 17.79885016658816 4.786303501619941 2.1645059560471087 0 0 0
1520 1 15.578671157801349 6.350464440742575 2.164451761475925 0 0 0
3802 1 26.675969359044693 22.001403844753987 -0.004449592734072853 0 0 0
1504 1 13.358838067659581 4.786523923918942 2.164614110408936 0 0 0
3772 1 26.6782058645446 28.255904350730216 0.0032191492292924506 0 0 0
1503 1 11.13883722670479 6.350739818027192 2.16491214947944 0 0 0
1491 1 8.918992745030367 4.7867379898664675 2.1652303298545954 0 0 0
1490 1 6.699191314978954 6.351066509582682 2.1652785316932834 0 0 0
1240 1 15.577713802351656 12.607069404797597 2.16438628356417 0 0 0
3757 1 26.67881325508676 31.382402391530782 0.004370068820187707 0 0 0
1482 1 4.479509463816176 4.7868822843735455 2.1655419164322214 0 0 0
148 1 4.479490028994712 36.07230216364331 2.1655468835332115 0 0 0
153 1 8.918983871852786 36.072447240706296 2.1652450752016277 0 0 0
160 1 13.35885305054556 36.072658083278505 2.164600707994477 0 0 0
169 1 17.798862011742226 36.07288009493423 2.164503586755926 0 0 0
180 1 22.239237127764095 36.072952323849385 2.164284415104624 0 0 0
1481 1 2.259780591863914 6.351185105893883 2.1653419094666995 0 0 0
1423 1 24.45865646718688 9.477745288263971 2.1636498564529565 0 0 0
221 1 2.259783113339545 34.50799959567891 2.1653352245252377 0 0 0
222 1 4.479477308618869 32.94374786476561 2.165129988623498 0 0 0
230 1 6.699177107429706 34.50811233005916 2.1652981336200177 0 0 0
231 1 8.918906413115465 32.944060192533826 2.1650138006581674 0 0 0
243 1 11.1388393294484 34.508445060922654 2.1649033862993754 0 0 0
244 1 13.358577634285588 32.944430949493075 2.1645954662247373 0 0 0
260 1 15.578688419096057 34.50870960138181 2.1644430946215443 0 0 0
261 1 17.798477127843793 32.94483899111519 2.1643213850791594 0 0 0
281 1 20.01883597959803 34.50890062353871 2.1643436462187027 0 0 0
282 1 22.23868911934699 32.94508810133183 2.163996478986709 0 0 0
303 1 24.459196032503865 34.509126233936065 2.1640626962174427 0 0 0
1402 1 22.238682580473043 7.914089305313267 2.164018134799586 0 0 0
1401 1 20.018183684708177 9.47818129889456 2.1640566465862694 0 0 0
361 1 2.2597423506945646 31.379407070768167 2.1650385948490625 0 0 0
362 1 4.479458503522695 29.815169081525443 2.1648039115952247 0 0 0
370 1 6.699205744647117 31.379580390447106 2.164853022774999 0 0 0
371 1 8.918864639101301 29.815467423100156 2.164521260107916 0 0 0
383 1 11.138584408315547 31.38007001431304 2.164755158586338 0 0 0
384 1 13.3582405630082 29.816074730181406 2.1646185197293435 0 0 0
400 1 15.578259174343012 31.38061873404461 2.1644313846899514 0 0 0
401 1 17.797760486502117 29.81674312750024 2.1642611035880757 0 0 0
421 1 20.018192093128494 31.38100031424293 2.1640641618822145 0 0 0
422 1 22.237860415164384 29.817305364327154 2.1637556572018504 0 0 0
443 1 24.45864950295235 31.381425959894695 2.1636461463959322 0 0 0
1381 1 17.79846225989858 7.914343635555312 2.164332987928865 0 0 0
1380 1 15.578248369687246 9.478567958340532 2.164431306916166 0 0 0
501 1 2.259677581744037 28.250806032411457 2.164782634466237 0 0 0
502 1 4.47938513278757 26.686583500123948 2.1646044014195143 0 0 0
510 1 6.699178412561671 28.251023243657773 2.16452538148403 0 0 0
511 1 8.918839092409169 26.686913553057256 2.164291533998655 0 0 0
523 1 11.138456022495504 28.251496226198714 2.164422065281618 0 0 0
524 1 13.357955269300394 26.687462760029963 2.1643955811534283 0 0 0
540 1 15.577711060816842 28.252123079902727 2.1644129480667598 0 0 0
541 1 17.796692433002114 26.68833401152694 2.164116821401152 0 0 0
561 1 20.017054426091242 28.253048363734763 2.1639523385334516 0 0 0
562 1 22.2361230596481 26.68987121301495 2.16334238261351 0 0 0
583 1 24.457723078015125 28.25413686715804 2.1630341338980625 0 0 0
1364 1 13.35856412031442 7.914758142424988 2.1646026308695707 0 0 0
1363 1 11.138582254225128 9.47913264975626 2.1647566584268723 0 0 0
641 1 2.259647902115132 25.12220419158338 2.1644839635486104 0 0 0
642 1 4.479291406176694 23.5579129367981 2.164284295009063 0 0 0
650 1 6.699080368875905 25.12238414461296 2.1644032233203783 0 0 0
651 1 8.91887752280962 23.55821870632902 2.1643029310515596 0 0 0
663 1 11.138432352866074 25.122812224755283 2.1643408893432374 0 0 0
664 1 13.357839787610981 23.558630432006925 2.1643107638767667 0 0 0
680 1 15.57730943835817 25.123351835018525 2.1641791057645707 0 0 0
681 1 17.79605208933401 23.559217942222666 2.1639547468483977 0 0 0
701 1 20.014797006950026 25.12507591330222 2.163680107043589 0 0 0
702 1 22.230194355330777 23.563449593006474 2.1630638263588295 0 0 0
723 1 24.454809928971798 25.1281235170491 2.162085140714858 0 0 0
1351 1 8.91891303698496 7.915129761437827 2.1650075009539376 0 0 0
1350 1 6.699202944870015 9.479596407730428 2.1648571216254804 0 0 0
781 1 2.259477128489381 21.993762996725934 2.1641917115290967 0 0 0
782 1 4.47932421174883 20.42958225238344 2.1640686239103895 0 0 0
790 1 6.699128954974537 21.993867256344853 2.1641878050234578 0 0 0
791 1 8.918882904889157 20.429590304796797 2.1642159769134053 0 0 0
1797 1 24.459605653109254 0.09448404193686263 2.164318627137587 0 0 0
803 1 11.138407902276072 21.99402466881676 2.1643459073896705 0 0 0
804 1 13.357832968603963 20.429592859277292 2.1643598024722075 0 0 0
820 1 15.577010449508936 21.994231388424513 2.1641877596272048 0 0 0
821 1 17.795836075060826 20.429586060913554 2.1641583397859403 0 0 0
841 1 20.01420015702569 21.994959187092476 2.163891428979702 0 0 0
842 1 22.23074580025358 20.42959012464704 2.16444515576917 0 0 0
863 1 24.436112302202183 22.007795780522066 2.1630977058076444 0 0 0
1342 1 4.479495364811622 7.9154197317462875 2.1651371338090475 0 0 0
1341 1 2.25974162787376 9.479751132564555 2.1650638136730014 0 0 0
921 1 2.2594818352259107 18.86539670325471 2.1641758132065525 0 0 0
1786 1 20.019228907174526 0.0945457993488836 2.164483567169528 0 0 0
922 1 4.479288671020438 17.301252621811102 2.164271528274568 0 0 0
930 1 6.699121997596226 18.86530425225234 2.1641868445830563 0 0 0
931 1 8.918872903490396 17.300962794262297 2.164310992261885 0 0 0
943 1 11.138405400100696 18.86516317409121 2.1643537417069765 0 0 0
944 1 13.357838942868677 17.300558161119746 2.164310503346116 0 0 0
960 1 15.577014544096983 18.86494470682677 2.1641929938510494 0 0 0
961 1 17.796064648490805 17.299950237738845 2.1639569163202306 0 0 0
981 1 20.014207445399094 18.864224814322288 2.163902772897885 0 0 0
982 1 22.230201582972754 17.295736573368533 2.1630738059992645 0 0 0
1776 1 15.578847285318922 0.09448885954504505 2.164458509840604 0 0 0
1003 1 24.436115548070834 18.851406280513405 2.163109694995106 0 0 0
1283 1 24.457730195041098 12.605038287092324 2.1630211675324924 0 0 0
1262 1 22.237864213447143 11.0418580269188 2.1637516560478502 0 0 0
1061 1 2.259647297039516 15.736959100714307 2.164476205843668 0 0 0
1062 1 4.479376196219761 14.17258337679697 2.164616967773012 0 0 0
1070 1 6.69907077457151 15.736787462974132 2.1644134857296837 0 0 0
1071 1 8.918828538673592 14.172270952695115 2.164303992007916 0 0 0
1768 1 11.138893427240047 0.09428339121205198 2.164940107430318 0 0 0
1083 1 11.138429191886447 15.736375744316407 2.16434108880209 0 0 0
1084 1 13.357954366552102 14.171725769303189 2.1643802002049695 0 0 0
1100 1 15.577313188787647 15.73583510024654 2.164163100339358 0 0 0
1101 1 17.796698999293863 14.170841086746636 2.1640930906932776 0 0 0
1121 1 20.014814839167542 15.734092144511273 2.1636846430960666 0 0 0
1762 1 6.699277354725341 0.09422889202395623 2.1655321632411635 0 0 0
1122 1 22.23614230278855 14.169316628305292 2.1633323903831605 0 0 0
1143 1 24.454819591080398 15.731047020048031 2.162088041139277 0 0 0
1261 1 20.017063630584754 12.60611921271725 2.1639399576194793 0 0 0
1758 1 2.2597516973892597 0.09420390121965738 2.1656007604860377 0 0 0
1241 1 17.79776501424075 11.04244284488238 2.1642389094082013 0 0 0
1201 1 2.2596725309794663 12.608356412019909 2.1648071373790487 0 0 0
1202 1 4.479457463314459 11.0439982137778 2.164827271849884 0 0 0
1210 1 6.6991699538030725 12.60814715097281 2.164546517886507 0 0 0
1211 1 8.918867838349094 11.04372392015396 2.1645332195326232 0 0 0
1223 1 11.138456653162121 12.607705438520377 2.16441388614167 0 0 0
1224 1 13.358238813968006 11.043114679788856 2.1646074199182492 0 0 0
3742 1 26.679410291058527 34.50946895399867 0.00500061010093109 0 0 0
3847 1 26.678200829543112 12.60327358062495 0.0032052972630149884 0 0 0
584 1 26.678346156694005 26.69206688041853 2.161278923174159 0 0 0
1144 1 26.67834730643993 14.167124104674286 2.1612576778374013 0 0 0
3817 1 26.67595331138952 18.85780375714018 -0.004477308076109818 0 0 0
1284 1 26.679012961315046 11.040809941718988 2.1630271728592354 0 0 0
304 1 26.67920799795967 32.94543506653685 2.1639082697690992 0 0 0
1004 1 26.67208339288865 17.293061369026276 2.158907685584647 0 0 0
3862 1 26.67881571214797 9.476749331986628 0.004355601586267345 0 0 0
444 1 26.679011475027178 29.818354624207263 2.163044056518073 0 0 0
1424 1 26.67922070046859 7.913728864656084 2.1639241926289383 0 0 0
724 1 26.67208984867683 23.566134083566578 2.1589077080673276 0 0 0
7 1 0.040227443180009266 34.50810224862837 0.006224072926195673 0 0 0
3877 1 26.67941541506306 6.349687412845657 0.005036681455878467 0 0 0
357 1 0.039990712867724425 29.81514647749799 2.1649259125887386 0 0 0
19 1 0.0401501311799435 31.379586273977996 0.006054764397057557 0 0 0
1197 1 0.03999103400955417 11.044016355685219 2.1649456922508863 0 0 0
115 1 0.04021997981563418 6.351082737229671 0.006217115637769397 0 0 0
103 1 0.04015110059264937 9.479586043013864 0.006068799337301344 0 0 0
497 1 0.03987220794046209 26.68654617711203 2.16461529112449 0 0 0
3832 1 26.67759615955622 15.729790171710345 0.0014461946457731978 0 0 0
3787 1 26.677593753138463 25.129399918249803 0.0014485377863809339 0 0 0
1057 1 0.03987378214523574 14.172626576124157 2.164626347186909 0 0 0
1337 1 0.04005567875066163 7.915435912894833 2.165140733115596 0 0 0
917 1 0.039667642867293296 17.30106035968664 2.164382419896459 0 0 0
1617 1 0.03994958120677694 1.6584323457228538 2.1653791866966747 0 0 0
139 1 0.040177452728336505 0.0942156140460284 0.0063241016833994875 0 0 0
127 1 0.040166998949928256 3.2226532559132077 0.006315191593814505 0 0 0
145 1 0.04004848529634586 36.0722779316995 2.1653066646813763 0 0 0
637 1 0.039659660679802755 23.558115497959108 2.1643885383079393 0 0 0
91 1 0.03998248162410789 12.608194761566052 0.005793872424512336 0 0 0
79 1 0.0397897930475537 15.73676702167453 0.005469904966797095 0 0 0
217 1 0.04006958984277276 32.943729254193514 2.1651361194333805 0 0 0
1477 1 0.040029816596891976 4.786904740173777 2.16529724351454 0 0 0
43 1 0.039784845613581865 25.12240521943808 0.005470260239509225 0 0 0
31 1 0.03996828631438376 28.250970644967538 0.005771892814658879 0 0 0
1598 1 15.579749038400449 6.351376438590342 24.45078750394218 0 0 0
1596 1 24.459596452883897 6.351157932963212 11.077572231256616 0 0 0
147 1 2.2597022281421646 36.07219144930083 4.392060723679349 0 0 0
1595 1 24.459652163738493 4.7869767875542495 13.30651280462086 0 0 0
1594 1 22.239615187630182 6.351184358653462 13.306453777157449 0 0 0
150 1 2.259661501132974 36.07215350274934 8.849761375509784 0 0 0
151 1 4.479510200680123 36.07214975395773 6.62096386975724 0 0 0
152 1 6.69932103310703 36.072280994201925 4.392029600764801 0 0 0
1593 1 22.23968322768664 4.786946479297024 15.535340240366741 0 0 0
1592 1 20.019665355322 6.351192484946057 15.535349715158842 0 0 0
155 1 2.2596340391658236 36.072158167456806 13.307358488862356 0 0 0
156 1 4.479563222532447 36.07214705052553 11.078573633723906 0 0 0
157 1 6.699445887076104 36.07218344791319 8.849709704625242 0 0 0
158 1 8.919285666705152 36.07231267355435 6.6207183118674475 0 0 0
159 1 11.139075003967049 36.07246362817531 4.391613399087644 0 0 0
1591 1 20.019666229239835 4.786987078761008 17.764218502875895 0 0 0
1590 1 17.799706267870526 6.351273924720266 17.76426798012666 0 0 0
162 1 2.2596308089098525 36.072107207815115 17.764843677285576 0 0 0
163 1 4.479653072092223 36.07211694056525 15.536095914221184 0 0 0
164 1 6.699599660476226 36.07213219883393 13.307285578072324 0 0 0
165 1 8.919526295848637 36.07223793136253 11.078367765739907 0 0 0
166 1 11.139400690849483 36.07236369782171 8.849374824042263 0 0 0
167 1 13.359283313534995 36.07247545619269 6.620279914001486 0 0 0
168 1 15.579048918210981 36.07264076534648 4.391142690489678 0 0 0
1589 1 17.799689833002468 4.787032882322369 19.993141654655357 0 0 0
1588 1 15.579745865244684 6.35131478012793 19.99320970015759 0 0 0
171 1 2.259560959272096 36.07217733301853 22.2223846554097 0 0 0
172 1 4.479624471228349 36.07214842956927 19.99359545635654 0 0 0
173 1 6.699660907043399 36.07214789013239 17.764812828018417 0 0 0
174 1 8.919656587452156 36.07218215726083 15.535966151106877 0 0 0
175 1 11.13960359522134 36.07228252544313 13.30699494906725 0 0 0
176 1 13.359542692115488 36.072395303300716 11.078007091133196 0 0 0
177 1 15.579449826961307 36.07245587544089 8.848996559924002 0 0 0
178 1 17.79935627295176 36.072605429690974 6.619972388650201 0 0 0
179 1 20.0192316089456 36.07275427190046 4.3910208825673385 0 0 0
1587 1 15.57974219568436 4.787031857024188 22.222039176940672 0 0 0
181 1 4.479532678719119 36.07222279650553 24.451270029030187 0 0 0
182 1 6.699601665230476 36.07219683714642 22.22239724977799 0 0 0
183 1 8.919632582248711 36.0721796712382 19.993569203084824 0 0 0
184 1 11.139650151352521 36.072194971036915 17.764676729855584 0 0 0
185 1 13.359661657135756 36.07229834199782 15.535711549954426 0 0 0
186 1 15.579616372320862 36.072371739416674 13.306708670612307 0 0 0
187 1 17.79961201235462 36.07236543620061 11.077763603830329 0 0 0
188 1 20.019570356051396 36.0724687752775 8.848805325854185 0 0 0
189 1 22.239561644759107 36.072540904068646 6.6198798925189966 0 0 0
190 1 24.459558941839113 36.07273057382027 4.390925216769252 0 0 0
1586 1 13.359735901493071 6.351328174234222 22.222114168660557 0 0 0
192 1 8.919604790250453 36.07220303857766 24.45113659006754 0 0 0
193 1 11.139696588286226 36.07218025527852 22.222258832848173 0 0 0
194 1 13.359705976754126 36.07217385066101 19.993392492656504 0 0 0
195 1 15.57971403627564 36.07223855021172 17.764424827193544 0 0 0
196 1 17.79967043876128 36.07229247104351 15.53543450739833 0 0 0
197 1 20.019670029691603 36.072289676668206 13.306541252973911 0 0 0
198 1 22.23970204654302 36.07230509101615 11.077652806915497 0 0 0
199 1 24.459672035851764 36.07236981951734 8.84878082296748 0 0 0
1585 1 13.35971260272734 4.787041398685707 24.450899991088974 0 0 0
201 1 13.359715357466408 36.07213960807709 24.45090129170268 0 0 0
202 1 15.579735362893796 36.07214583000282 22.22204784213453 0 0 0
203 1 17.799681479932058 36.072142242537765 19.99314473652974 0 0 0
204 1 20.01967061580996 36.07218706605304 17.764212572248958 0 0 0
205 1 22.23969176968104 36.07223306323476 15.53532828679948 0 0 0
206 1 24.459658955087374 36.07220362130491 13.306501826377957 0 0 0
1584 1 11.139668490837348 6.351282358052364 24.451011654264725 0 0 0
208 1 17.799755342537086 36.07205737232106 24.45077611965667 0 0 0
209 1 20.01969807461331 36.07211306535788 22.22190576719869 0 0 0
210 1 22.239637466228807 36.07215545572919 19.99300935399777 0 0 0
211 1 24.459617054755014 36.07215242170588 17.764183688058097 0 0 0
1599 1 17.79975177732091 4.78711494764048 24.45076704238419 0 0 0
213 1 22.23968728287143 36.072059283976856 24.45066581284771 0 0 0
214 1 24.45965537534099 36.07211352161588 22.22187045907096 0 0 0
1600 1 17.79976011050911 6.351365235132397 22.221914142760788 0 0 0
1581 1 24.45949652512753 6.350747349978266 6.619744038210158 0 0 0
1580 1 24.45966900985162 4.786810273820381 8.848788889776172 0 0 0
1579 1 22.239518583305358 6.350957271972223 8.848682108506631 0 0 0
1578 1 22.23970312531235 4.786885638526565 11.07766234007719 0 0 0
220 1 2.2597487542742587 32.94361010949691 4.391770529393577 0 0 0
1577 1 20.019569407546367 6.351005610713907 11.07766510948144 0 0 0
1576 1 20.01967955135271 4.786895927390255 13.306551247840492 0 0 0
1575 1 17.79965893240805 6.3510794483757 13.306577846870983 0 0 0
1574 1 17.799671036415596 4.786888552064005 15.535438948024659 0 0 0
225 1 2.259631818522746 32.94356133314284 8.849545226173527 0 0 0
226 1 2.2597191818693902 34.50786808434085 6.620805566717341 0 0 0
227 1 4.4795292354831915 32.94356999735402 6.620673416120572 0 0 0
228 1 4.479502860173439 34.50794199395308 4.391954635641136 0 0 0
229 1 6.6992502839193735 32.94377173392539 4.391715622204321 0 0 0
1573 1 15.579703991520873 6.351097687056522 15.535523233793 0 0 0
1572 1 15.579715099653841 4.786944842102052 17.764423327435388 0 0 0
1571 1 13.359730872224866 6.351212517923806 17.764471952259434 0 0 0
1570 1 13.35971601863124 4.7870088329633695 19.99338619771124 0 0 0
234 1 2.259597935512684 32.94356395489888 13.307165455742092 0 0 0
235 1 2.259649208948379 34.50785597903879 11.07849452672617 0 0 0
236 1 4.47954052329692 32.943528664970934 11.078388550777548 0 0 0
237 1 4.479549574480707 34.507857940445675 8.849680986670903 0 0 0
238 1 6.699457445590138 32.94364671968838 8.849483434936632 0 0 0
239 1 6.699393451909454 34.50794104965597 6.620772962837935 0 0 0
240 1 8.919233926846779 32.94381679287461 6.620469867264409 0 0 0
241 1 8.91913652044071 34.50813995536144 4.391749863758006 0 0 0
242 1 11.138952485467222 32.94412419917027 4.391461800674779 0 0 0
1569 1 11.139708698678106 6.351271953880297 19.993424550463377 0 0 0
1568 1 11.139698906537042 4.786992529680009 22.222259747083445 0 0 0
1567 1 8.91966573277174 6.3512528521115525 22.222300463241876 0 0 0
1566 1 8.919608618793587 4.786972483044241 24.45113781646527 0 0 0
247 1 2.259578584020946 32.943542404458654 17.764708858023823 0 0 0
248 1 2.259596175328541 34.50780891633825 15.53602851728893 0 0 0
249 1 4.479606821673495 32.94352521206994 15.535899418402723 0 0 0
250 1 4.479607381651887 34.50782702033607 13.307271223139619 0 0 0
251 1 6.699620126872378 32.94359056803828 13.307097907044616 0 0 0
252 1 6.6995399611054545 34.50787943246077 11.078421889939575 0 0 0
253 1 8.919554632568104 32.94372030994426 11.078143110743076 0 0 0
254 1 8.919391822689088 34.50802102916389 8.849434836670758 0 0 0
255 1 11.139357419104705 32.943882915874276 8.849210161455362 0 0 0
256 1 11.139190355843384 34.508232067340415 6.620428198028663 0 0 0
257 1 13.359104353143232 32.944201997172385 6.62022303963743 0 0 0
258 1 13.35891792245591 34.508505322878136 4.3913313503044415 0 0 0
259 1 15.578777531297852 32.94452060746477 4.391113770402927 0 0 0
1565 1 6.699583716235794 6.351229929765182 24.451190060868477 0 0 0
1718 1 22.239783799293917 1.6584295004574603 11.077722720800793 0 0 0
1719 1 22.23970312644315 3.2225910059783005 8.848879041060256 0 0 0
1562 1 24.45956231010795 4.786440632418378 4.390947687367114 0 0 0
264 1 2.259546544755514 32.94363849308877 22.222329136414434 0 0 0
265 1 2.259590258255339 34.50784634927952 19.99355686005297 0 0 0
266 1 4.479625594573008 32.943593534394026 19.993493605809913 0 0 0
267 1 4.479648102062943 34.507834531833325 17.76475914321381 0 0 0
268 1 6.699657164077471 32.94358177213933 17.764624224546488 0 0 0
269 1 6.699658686145536 34.50782534118098 15.535973605097809 0 0 0
270 1 8.91967278334657 32.94362046775504 15.5357976481337 0 0 0
271 1 8.919635421161185 34.507944385767026 13.307075065971299 0 0 0
272 1 11.13964404977652 32.94378936967378 13.306842939042017 0 0 0
273 1 11.139514168640629 34.508087426775674 11.078123382244058 0 0 0
274 1 13.359525710444888 32.94393411301317 11.077895827314855 0 0 0
275 1 13.359382796104434 34.50826545264253 8.84913411834352 0 0 0