LAMMPS data file via write_data, version 2 Aug 2023, timestep = 1200, units = metal

7201 atoms
3 atom types

0.03958813586850985 53.31961163971104 xlo xhi
0.0942378869118977 37.63641411308831 ylo yhi
-22.32701580907706 75.68621558465642 zlo zhi

Masses

1 183.84
2 1.008
3 4.0026

Atoms # atomic

1 1 2.2594898421501215 36.07221057870849 0.004802324559520654 0 0 0
2 1 6.699253950199433 36.07225620722571 0.004828294036875185 0 0 0
3 1 11.139037401010327 36.072339389552226 0.004863904043170654 0 0 0
4 1 15.578892189069968 36.07247490446712 0.004888343209462061 0 0 0
5 1 20.018896270225202 36.07264953874734 0.004857600926685188 0 0 0
6 1 24.459148685085797 36.072808415144436 0.0047643926920257745 0 0 0
1703 1 24.45928179134389 3.222519795332411 2.163900310383297 0 0 0
8 1 2.259462781428579 32.94373202087949 0.004800926405962177 0 0 0
9 1 4.4793521466118005 34.508002574300015 0.00481495550095135 0 0 0
10 1 6.699183999418721 32.94381723120988 0.004828482890074721 0 0 0
11 1 8.919095841320114 34.50809386705428 0.0048441809981933665 0 0 0
12 1 11.13889023610939 32.943982725168276 0.004845354770704401 0 0 0
13 1 13.358868969952194 34.50825823984788 0.0048607110793912915 0 0 0
14 1 15.578643413290605 32.94426106676744 0.004782882331498722 0 0 0
15 1 17.79874916142278 34.508504674593375 0.004811628729380874 0 0 0
16 1 20.018580726190166 32.94462424247612 0.004590541279403386 0 0 0
17 1 22.23886294721081 34.50877469173714 0.004677486812879059 0 0 0
18 1 24.458873712501855 32.94500220070609 0.004321035608291627 0 0 0
1682 1 22.239164935467098 1.6585024189039257 2.1639553920301133 0 0 0
20 1 2.25942497951211 29.815227122386826 0.004801036194717579 0 0 0
21 1 4.479297780932876 31.379524825479646 0.004813553966358848 0 0 0
22 1 6.699087767034409 29.815335483032968 0.004824924211051594 0 0 0
23 1 8.918965435644315 31.379666675227764 0.004835504471481548 0 0 0
24 1 11.138666227755861 29.81556128870663 0.004796364408367973 0 0 0
25 1 13.358609644926181 31.379936442534113 0.004781438461139956 0 0 0
26 1 15.578224871942231 29.815976028172276 0.004561260031448637 0 0 0
27 1 17.79835390686525 31.38035485782941 0.004543690384023444 0 0 0
28 1 20.018007563513116 29.816530658052834 0.004044792941981086 0 0 0
29 1 22.23841510969535 31.38085739727098 0.004140275850442243 0 0 0
30 1 24.45833575032971 29.817228016376085 0.0032965863061457552 0 0 0
1681 1 20.019059929969973 3.2225711879515138 2.163952012631705 0 0 0
32 1 2.2593862417678032 26.686695525897303 0.004804101664752908 0 0 0
33 1 4.4792381116322115 28.251008368665808 0.00481296056539688 0 0 0
34 1 6.698998986954694 26.686795593388215 0.0048186264641348 0 0 0
35 1 8.918809365439197 28.251169919009737 0.004813061012312348 0 0 0
36 1 11.13841845193501 26.68702644955918 0.004722973764443986 0 0 0
37 1 13.358243138758652 28.251512767436427 0.00463385612996355 0 0 0
38 1 15.577663133287297 26.68750777841532 0.004229626802047774 0 0 0
39 1 17.797725232414173 28.252071839773244 0.004072129030284172 0 0 0
40 1 20.01713409891739 26.68820338784227 0.003112139408777888 0 0 0
41 1 22.237659834109564 28.252809921491814 0.0030911164341979516 0 0 0
42 1 24.45748211081041 26.689203699112966 0.001384561883220716 0 0 0
1661 1 17.799032499437097 1.6585011470808413 2.1639654671308586 0 0 0
44 1 2.259357779497788 23.558144130183077 0.0048075273467960405 0 0 0
45 1 4.479188164635275 25.12245554161515 0.004813204159205863 0 0 0
46 1 6.698937695254728 23.55820521678767 0.004812496617632825 0 0 0
47 1 8.918680811933132 25.12258356623463 0.004788079310029852 0 0 0
48 1 11.138243545237138 23.558351365550603 0.004661828018717717 0 0 0
49 1 13.357872749866253 25.122893528606333 0.004459366597246927 0 0 0
50 1 15.577117213713338 23.558708400338727 0.0038844906358031224 0 0 0
51 1 17.79691587897893 25.12347597029401 0.0034038797344268855 0 0 0
52 1 20.0161078393625 23.559300891323232 0.0019029069946827958 0 0 0
53 1 22.236608827438957 25.12429776184329 0.0014290236613155422 0 0 0
54 1 24.45655645392818 23.560165230026445 -0.0014119197753283076 0 0 0
1660 1 15.579010555651202 3.2226243336292044 2.1639450113428533 0 0 0
56 1 2.259346834837625 20.42958315810037 0.004808997162187667 0 0 0
57 1 4.479161454908243 21.993876965515526 0.004813267124683525 0 0 0
58 1 6.698914979794743 20.42958457769764 0.004810298864077885 0 0 0
59 1 8.91861195601474 21.993926093516464 0.004772014361604186 0 0 0
60 1 11.138182670048975 20.429586195061166 0.004637889824944302 0 0 0
61 1 13.357656434975404 21.994052604576442 0.004352377470228995 0 0 0
62 1 15.576918108440944 20.429586573349383 0.0037536502461255864 0 0 0
63 1 17.796215668520453 21.994341797416176 0.0027906833718900083 0 0 0
64 1 20.015425228876026 20.429589108986725 0.0010467124867931303 0 0 0
65 1 22.235642700353594 21.994750064422472 -0.00031737975589301714 0 0 0
66 1 24.456544813982433 20.429590858505232 -0.0007695917935179068 0 0 0
1644 1 13.359058847593966 1.6584995089161148 2.163924796419375 0 0 0
68 1 2.259357420913059 17.301022214659536 0.004807148319436556 0 0 0
69 1 4.479161363302278 18.86528982420072 0.004813075397109562 0 0 0
70 1 6.698937584404646 17.30096393319389 0.004812463253205145 0 0 0
71 1 8.91861181322853 18.865245349145766 0.004772412440883376 0 0 0
72 1 11.13824307830329 17.300821055113854 0.0046628066892518095 0 0 0
73 1 13.357656260919477 18.865119721550634 0.004352771342387359 0 0 0
74 1 15.577117413780138 17.300465327233635 0.0038849318210412405 0 0 0
75 1 17.796216023814825 18.86483383834488 0.0027910163136248595 0 0 0
76 1 20.016109311882133 17.29987828230926 0.0019049629957584684 0 0 0
77 1 22.23564318429876 18.86443075839162 -0.00031656743138544507 0 0 0
78 1 24.456556514042653 17.299017102878288 -0.0014087542252152903 0 0 0
1643 1 11.139107951901575 3.222673090727422 2.1638913222551257 0 0 0
80 1 2.259385847579964 14.172470837984758 0.004803431117417876 0 0 0
81 1 4.479187951020135 15.736711569976984 0.004812735262051359 0 0 0
82 1 6.698998709191056 14.17237399030179 0.004818620387066031 0 0 0
83 1 8.91868069541402 15.736587892628998 0.004788777279332657 0 0 0
84 1 11.13841797538702 14.172146428929663 0.004724752740976909 0 0 0
85 1 13.357872033315925 15.736279617031604 0.004460428407138048 0 0 0
86 1 15.577662590829709 14.171665683379883 0.004230723521625406 0 0 0
87 1 17.796916101997695 15.735699759319328 0.003405571802526543 0 0 0
88 1 20.01713505185497 14.17097594049814 0.003115043259723317 0 0 0
89 1 22.236608737508195 15.7348830589508 0.0014326404328557363 0 0 0
90 1 24.457481905173797 14.169979111389646 0.0013891631418688458 0 0 0
1631 1 8.919200908316359 1.6584974935307482 2.163861488831333 0 0 0
92 1 2.2594246387513897 11.043939857199328 0.004800336912602355 0 0 0
93 1 4.479238001222053 12.608159197806458 0.004812234442360025 0 0 0
94 1 6.699087546125978 11.04383439116199 0.00482475550602041 0 0 0
95 1 8.918809315944927 12.608001677805646 0.004814145717320154 0 0 0
96 1 11.13866567406943 11.043611589213965 0.004798424550666656 0 0 0
97 1 13.35824168493056 12.6076607963577 0.004636072952021408 0 0 0
98 1 15.57822369632995 11.043198475121757 0.0045634318712951755 0 0 0
99 1 17.79772619683349 12.607104687290565 0.004073702060374055 0 0 0
100 1 20.018008183217262 11.04264937922309 0.004047768029476648 0 0 0
101 1 22.23765902675996 12.606370173607878 0.0030957209274494776 0 0 0
102 1 24.458335595701055 11.041954804717946 0.0033016183669420497 0 0 0
1630 1 6.699290158837 3.2227071738110817 2.1638402558714587 0 0 0
104 1 2.259462453436395 7.915436130145353 0.0048002785922612685 0 0 0
105 1 4.47929770864824 9.47964309597131 0.0048127213388014616 0 0 0
106 1 6.699184175077926 7.915352736330099 0.0048279490356584855 0 0 0
107 1 8.918965388308628 9.479505502973476 0.004836381139175857 0 0 0
108 1 11.138890022658257 7.915190672342306 0.004847702747696141 0 0 0
109 1 13.35860856844664 9.479237808067008 0.004784586680344003 0 0 0
110 1 15.578642108209953 7.914914891107503 0.004786349006479791 0 0 0
111 1 17.798354472582144 9.478821810385352 0.004546048357249152 0 0 0
112 1 20.018581678435048 7.9145561400214905 0.004592482023084286 0 0 0
113 1 22.238415902603318 9.478324287024455 0.004144054083416339 0 0 0
114 1 24.458874806206815 7.914181590365793 0.004323998351248154 0 0 0
1622 1 4.479398855793053 1.6584964303155152 2.163824017755554 0 0 0
116 1 2.259489812602992 4.786958452054404 0.0048019053317899015 0 0 0
117 1 4.479352074047972 6.351166179294393 0.004814329133745903 0 0 0
118 1 6.699254015464839 4.78691342013225 0.004827805542301819 0 0 0
119 1 8.919095905073114 6.351078076338182 0.004844633694265174 0 0 0
120 1 11.139037245528874 4.786834333543835 0.004865790224990235 0 0 0
121 1 13.358868053636915 6.350916581952844 0.00486422727225664 0 0 0
122 1 15.578891241231975 4.786702622651578 0.004891366995174703 0 0 0
123 1 17.798748652652236 6.3506732545675995 0.004813989031733015 0 0 0
124 1 20.018896425072352 4.7865308004897695 0.004858281935488644 0 0 0
125 1 22.2388639385354 6.350407922887491 0.004678387566399033 0 0 0
126 1 24.459149733792096 4.786374947452738 0.004763943213878349 0 0 0
1621 1 2.2595028017163252 3.2227273030046137 2.163807730236686 0 0 0
128 1 2.25950044093448 1.6584966309515081 0.004803173705464387 0 0 0
129 1 4.47938367101635 3.2227165897035857 0.004815867493591209 0 0 0
130 1 6.699279611470252 1.6584966306255138 0.004827719731275588 0 0 0
131 1 8.91916779341429 3.222686998134693 0.004843661685199574 0 0 0
132 1 11.139086248186736 1.6584989360746425 0.004866816900726819 0 0 0
133 1 13.359000555271024 3.2226374663728232 0.004893632286242628 0 0 0
134 1 15.578972058060732 1.658500819746786 0.004921130616471814 0 0 0
135 1 17.798937538784692 3.2225588412050383 0.004920579233186014 0 0 0
136 1 20.018991724327105 1.6585024593864457 0.004928820541845652 0 0 0
137 1 22.239056081685302 3.2224770311510595 0.00489129757637457 0 0 0
138 1 24.45922099179277 1.658503290839767 0.004884033254468958 0 0 0
1563 1 24.459167912087548 6.350544310229641 2.1636505569258153 0 0 0
140 1 4.479383799862101 0.0942764031007357 0.004816132319182487 0 0 0
141 1 8.919167657194716 0.09430806842370743 0.004843542331514458 0 0 0
142 1 13.35900090577481 0.09436209923849503 0.004891783890655195 0 0 0
143 1 17.79893755183483 0.09444444511442884 0.004919933339654272 0 0 0
144 1 22.23905564327819 0.0945295126987773 0.004891266864708382 0 0 0
1542 1 22.23909840794381 4.786584994388519 2.1638579081223797 0 0 0
1541 1 20.018914116579804 6.350714818948844 2.163798529136094 0 0 0
1521 1 17.79896283079697 4.786696403009 2.163921534371743 0 0 0
1520 1 15.578883890852229 6.350885242740444 2.163886378101432 0 0 0
3802 1 26.6780395464864 21.994519952822127 -0.0005476811092059012 0 0 0
1504 1 13.359002983453868 4.786803216874125 2.163912121222701 0 0 0
3907 1 26.679408431405236 0.09458756218879927 0.004819524827883753 0 0 0
1503 1 11.139019905907997 6.351035255966174 2.163883362977486 0 0 0
1491 1 8.919166532036398 4.786890899268201 2.1638632018454094 0 0 0
1490 1 6.699241681171835 6.351139238620689 2.1638420010962327 0 0 0
3877 1 26.679317488138487 6.350192829854464 0.004515746925945646 0 0 0
3892 1 26.67940934916544 3.222420479889557 0.004819451853426072 0 0 0
1482 1 4.479382331099364 4.786942609273272 2.163823665415354 0 0 0
148 1 4.479382261378043 36.0722262466372 2.163824063530461 0 0 0
153 1 8.919166877652554 36.07228036891872 2.1638629147279147 0 0 0
160 1 13.359003560789837 36.07237147445644 2.1639092432678635 0 0 0
169 1 17.798963524819506 36.072481165156205 2.1639189457342436 0 0 0
180 1 22.239097510435972 36.07259655114888 2.1638578004693207 0 0 0
1481 1 2.2594835865953438 6.351196941018451 2.163806173369972 0 0 0
1423 1 24.45889080351497 9.47853174314012 2.162971115953806 0 0 0
221 1 2.2594837678022346 34.50797154314073 2.163806543201985 0 0 0
222 1 4.479337085459295 32.94376078381683 2.1638232709896825 0 0 0
230 1 6.699241884567514 34.508030352054654 2.1638424089661785 0 0 0
231 1 8.91907099643447 32.94386267521618 2.163860800345905 0 0 0
243 1 11.139020669398143 34.50813749633684 2.1638812500612405 0 0 0
244 1 13.358840241650809 32.944037551692354 2.163860116950661 0 0 0
260 1 15.578884977238786 34.50829065641758 2.163882648934257 0 0 0
261 1 17.798745298345192 32.94426471843411 2.163746492623782 0 0 0
281 1 20.018914053026155 34.508464300260066 2.1637972029131216 0 0 0
282 1 22.238878440052652 32.9445128055305 2.163515701360293 0 0 0
303 1 24.45916728745462 34.50863803211185 2.1636493332829323 0 0 0
1402 1 22.238878761267177 7.914667810178461 2.1635182706519727 0 0 0
1401 1 20.0185835486546 9.478887403346931 2.16341209978887 0 0 0
361 1 2.259450388716444 31.379480342632128 2.1638054528705926 0 0 0
362 1 4.4792774774914506 29.81526271451733 2.1638230520669794 0 0 0
370 1 6.69915864543607 31.37956633059171 2.163842063718783 0 0 0
371 1 8.918933431198598 29.815395186363983 2.16384718263434 0 0 0
383 1 11.13885422084756 31.379731747638186 2.1638512245503314 0 0 0
384 1 13.358569931540737 29.815643188214597 2.163749840410185 0 0 0
400 1 15.57861660205934 31.379990600118724 2.163730625444875 0 0 0
401 1 17.798337559543434 29.815982624007294 2.1633851998007447 0 0 0
421 1 20.018584417932846 31.3802914245756 2.1634096928340925 0 0 0
422 1 22.238415657626412 29.816397344658903 2.1627518212514674 0 0 0
443 1 24.45889168548011 31.380650476699532 2.162968319407439 0 0 0
1381 1 17.798744624988256 7.914911843188633 2.1637495139014598 0 0 0
1380 1 15.578615644584472 9.479184737188136 2.1637333955260227 0 0 0
501 1 2.2594113060142367 28.25096183267277 2.163806835065549 0 0 0
502 1 4.479222066192594 26.686727852158096 2.163822150128243 0 0 0
510 1 6.699067057028149 28.2510539506638 2.1638383923517006 0 0 0
511 1 8.918799860343226 26.68685207867776 2.1638238468937607 0 0 0
523 1 11.13863193215558 28.251248138102206 2.1637910046305806 0 0 0
524 1 13.35823326124608 26.68712154419372 2.1635881066112743 0 0 0
540 1 15.578195776199696 28.251586336990492 2.1634548663593747 0 0 0
541 1 17.797688153238713 26.687545943309708 2.1628069520029745 0 0 0
561 1 20.017977196515858 28.25202917453828 2.16268017570545 0 0 0
562 1 22.237567125941272 26.688136876596676 2.1613425145064316 0 0 0
583 1 24.45833781632331 28.25265366284283 2.1615341144143003 0 0 0
1364 1 13.358839112222896 7.915137024188681 2.1638636921100645 0 0 0
1363 1 11.138853191350703 9.479440992242013 2.1638536392019305 0 0 0
641 1 2.259377720720176 25.12242046840276 2.1638097357284924 0 0 0
642 1 4.479183817238526 23.558163972612594 2.163822320376527 0 0 0
650 1 6.6989941027680455 25.12249073986788 2.1638316798239163 0 0 0
651 1 8.918707740314787 23.558237816623663 2.1638032897506196 0 0 0
663 1 11.138445324954402 25.12264743225995 2.163723004304666 0 0 0
664 1 13.357989202549236 23.558414172011318 2.1634485514436395 0 0 0
680 1 15.57766221895113 25.122990952443914 2.1630991744274857 0 0 0
681 1 17.79687601173515 23.55880152677374 2.1620936383737726 0 0 0
701 1 20.017009041559263 25.12350013818666 2.1615315015842484 0 0 0
702 1 22.236200442774607 23.55942991263321 2.159250692942736 0 0 0
723 1 24.457284082921447 25.124595338042507 2.1589844097538453 0 0 0
1351 1 8.919070006821917 7.915308727016189 2.1638614614987763 0 0 0
1350 1 6.699158331660905 9.479603405499452 2.1638418519134337 0 0 0
781 1 2.259358446219423 21.993863525382004 2.1638116831194973 0 0 0
782 1 4.479171214504436 20.429583226383826 2.163822228036984 0 0 0
790 1 6.698951743663245 21.993891265063944 2.1638275875234814 0 0 0
791 1 8.91867657213691 20.429585688870095 2.163792743593878 0 0 0
1797 1 24.459281236767485 0.09448584711982563 2.1639001023409694 0 0 0
803 1 11.138342617252418 21.99395358301426 2.163680693141133 0 0 0
804 1 13.357896466974145 20.429586421569233 2.163395748189815 0 0 0
820 1 15.577376217739305 21.994087885574025 2.1628604097585717 0 0 0
821 1 17.796625572646704 20.429588126617425 2.161793787102129 0 0 0
841 1 20.01576067974047 21.994437326297962 2.160264401331146 0 0 0
842 1 22.234466215700827 20.429591512036005 2.1575343649127756 0 0 0
863 1 24.45567686636957 21.995749899395452 2.15621555994701 0 0 0
1342 1 4.4793370821469995 7.915407439337771 2.163822665703144 0 0 0
1341 1 2.259450010786705 9.47968719826474 2.1638049501007375 0 0 0
921 1 2.2593582987585727 18.865302295923627 2.16381164640881 0 0 0
1786 1 20.019060001510688 0.09443150783582155 2.1639509764512352 0 0 0
922 1 4.479183605394603 17.301002627390396 2.1638220286780094 0 0 0
930 1 6.698951605829513 18.86527773638161 2.1638276274104884 0 0 0
931 1 8.918707408020124 17.300933913389418 2.1638039165635585 0 0 0
943 1 11.13834255213869 18.865218878642757 2.1636809891912048 0 0 0
944 1 13.357989236818272 17.30075900134477 2.163449335595785 0 0 0
960 1 15.577375931623951 18.865086197904546 2.1628609244528074 0 0 0
961 1 17.796875697652055 17.300373715999914 2.1620943682538423 0 0 0
981 1 20.015760527737264 18.86474133279931 2.160265513916977 0 0 0
982 1 22.23620028134049 17.299751961061823 2.1592536198959444 0 0 0
1776 1 15.579010907682774 0.09437666946352148 2.1639435507181606 0 0 0
1003 1 24.455678361791858 18.863434407460108 2.1562190466110196 0 0 0
1283 1 24.45833799502565 12.60653021755337 2.1615407966556135 0 0 0
1262 1 22.238415073223614 11.042784454625027 2.1627550713095456 0 0 0
1061 1 2.2593772845137345 15.736745728634643 2.1638094972152584 0 0 0
1062 1 4.47922158538302 14.172439282223694 2.163821856220826 0 0 0
1070 1 6.698993980119293 15.736678258383002 2.1638317605666324 0 0 0
1071 1 8.918799345742853 14.172319205753972 2.1638247171028926 0 0 0
1768 1 11.139108099131942 0.09432399996270391 2.163890441001508 0 0 0
1083 1 11.138444174422167 15.736525289265428 2.1637244192886875 0 0 0
1084 1 13.358232986605469 14.172051796822794 2.1635896795679477 0 0 0
1100 1 15.577661543036637 15.73618325781794 2.1631000585639715 0 0 0
1101 1 17.797688189506772 14.171630330398061 2.1628083488726224 0 0 0
1121 1 20.01700969364089 15.735678839075305 2.1615338568883864 0 0 0
1762 1 6.699290050483798 0.09428618216178108 2.1638404605544377 0 0 0
1122 1 22.23756744930311 14.171045631961976 2.1613471606616224 0 0 0
1143 1 24.45728410086761 15.734587117609667 2.158988830149667 0 0 0
1261 1 20.017976700416213 12.607149184377148 2.1626828212150353 0 0 0
1758 1 2.259502800337991 0.0942655892157731 2.1638079074963232 0 0 0
1241 1 17.798336553339443 11.043193012534475 2.1633874859174202 0 0 0
1201 1 2.259410856587356 12.608204758123362 2.1638063229381737 0 0 0
1202 1 4.479277251355342 11.043904970796142 2.163822585171307 0 0 0
1210 1 6.699066606805603 12.608115384637077 2.1638383411409876 0 0 0
1211 1 8.918933051409898 11.043776336948056 2.1638481064529604 0 0 0
1223 1 11.138631042126187 12.60792514131034 2.1637931593292583 0 0 0
1224 1 13.358568955935738 11.043531036646502 2.163752472571857 0 0 0
1240 1 15.578195578245909 12.607588586280112 2.163456499104761 0 0 0
3787 1 26.678011734837018 25.125691101652688 -0.0022935537173716263 0 0 0
3817 1 26.67804081647332 18.864664678587598 -0.0005441697640201876 0 0 0
1144 1 26.67853075237929 14.169816196237802 2.1593230171365057 0 0 0
3832 1 26.678012541681245 15.733494574641623 -0.002287393781558187 0 0 0
584 1 26.67853049334033 26.689366653182667 2.1593178208219053 0 0 0
724 1 26.676990907614698 23.562446726856997 2.154404646362337 0 0 0
1004 1 26.67699074001715 17.296738872881463 2.1544088288353183 0 0 0
7 1 0.03960135400135556 34.50795297239094 0.004787745462015667 0 0 0
864 1 26.676759023290604 20.429591623105757 2.1586650721867433 0 0 0
1704 1 26.67945875236767 1.6585036930035817 2.1638955074003308 0 0 0
115 1 0.03960105535082903 6.35121613392003 0.004787253711464313 0 0 0
127 1 0.039613094798852444 3.222734098544265 0.004786355564362892 0 0 0
1337 1 0.03959515720769957 7.915462251179454 2.1637915892085804 0 0 0
139 1 0.039613315405347294 0.09425912870962963 0.0047865891793466946 0 0 0
444 1 26.679051085293153 29.816963019880014 2.1620249923490094 0 0 0
1617 1 0.03961453673830562 1.6584966493204043 2.1637894972230955 0 0 0
304 1 26.679311405095344 32.94476872414399 2.1632646530996333 0 0 0
1424 1 26.679311729666736 7.914415208849608 2.1632666121009425 0 0 0
1477 1 0.03961019762486018 4.786973024698471 2.1637897658594594 0 0 0
217 1 0.03959565824955291 32.94370648304793 2.1637918024724723 0 0 0
191 1 26.67942583433956 36.072694946279825 2.163764321767093 0 0 0
145 1 0.03961055523998169 36.07219626942771 2.1637899773276406 0 0 0
3862 1 26.67906449116782 9.477815583503169 0.00367005479232352 0 0 0
3847 1 26.678605985348472 12.605352830428737 0.0017374356992899864 0 0 0
1284 1 26.6790496835947 11.042221513789926 2.1620309832462064 0 0 0
1564 1 26.679426802640144 4.786488417897251 2.1637639815614733 0 0 0
3742 1 26.679316710761114 34.50899290753528 0.004514775001830708 0 0 0
3772 1 26.678607519870592 28.25383215544608 0.0017318736123395617 0 0 0
3757 1 26.67906496961816 31.38136986877243 0.0036655836820058242 0 0 0
1598 1 15.57949217844317 6.351249157281722 24.45087597815674 0 0 0
1596 1 24.459462926973817 6.351077198495345 11.07741909611086 0 0 0
147 1 2.2595199118627876 36.07220500912233 4.390440078075492 0 0 0
1595 1 24.45949429627363 4.786910053952342 13.306406332923094 0 0 0
1594 1 22.239457128558378 6.351163484597807 13.306363079694 0 0 0
150 1 2.2595861872434755 36.072193346302846 8.848315330874842 0 0 0
151 1 4.4794601540127434 36.07221011286589 6.619401397031022 0 0 0
152 1 6.69931546317733 36.072238482772164 4.3904808394766945 0 0 0
1593 1 22.239474763203873 4.78695611830203 15.535317023345545 0 0 0
1592 1 20.019458788672466 6.351216458700082 15.535276693412273 0 0 0
155 1 2.259633517627992 36.072182564589035 13.306170880428395 0 0 0
156 1 4.479547487867147 36.07219075970835 11.077261707218385 0 0 0
157 1 6.699435438076016 36.072208736998626 8.848359464113948 0 0 0
158 1 8.919296346675248 36.07224512379112 6.619453254143201 0 0 0
159 1 11.139146521241717 36.07229720361584 4.3905352054842295 0 0 0
1591 1 20.019473305056074 4.786983136516616 17.764206925793562 0 0 0
1590 1 17.799469001196933 6.351241690893543 17.76416806255682 0 0 0
162 1 2.2596452153446736 36.072175280897774 17.764016773297413 0 0 0
163 1 4.479596192305053 36.07217728008162 15.535103578112926 0 0 0
164 1 6.699529853614343 36.07218380719407 13.306203446439687 0 0 0
165 1 8.91943926194866 36.07220161548181 11.077312181354975 0 0 0
166 1 11.139324421797411 36.07223780736811 8.848419774277746 0 0 0
167 1 13.359185177172831 36.072304145142155 6.619511197805854 0 0 0
168 1 15.579063625755074 36.07237838007034 4.390574135495367 0 0 0
1589 1 17.79948017743898 4.786995260131872 19.993083825188716 0 0 0
1588 1 15.579484940987385 6.351253270357199 19.99305069920286 0 0 0
171 1 2.259634586677941 36.072170391918355 22.221860695198846 0 0 0
172 1 4.4796042731951795 36.072170902890186 19.992941551543556 0 0 0
173 1 6.699567179423934 36.072172542738734 17.764034647832258 0 0 0
174 1 8.919519797699781 36.07217732550632 15.535141254980925 0 0 0
175 1 11.13945994615073 36.072186501264085 13.306257262822504 0 0 0
176 1 13.359378382373173 36.07221785430232 11.077372813620004 0 0 0
177 1 15.579281823933105 36.07227469660426 8.848471975201814 0 0 0
178 1 17.799175056465355 36.07237383354753 6.619536664229077 0 0 0
179 1 20.01911161708669 36.072463325026355 4.390556668953344 0 0 0
1587 1 15.579492805117118 4.786998961095293 22.22195713071142 0 0 0
181 1 4.479594770003204 36.07216730288957 24.450780515862103 0 0 0
182 1 6.699569923510397 36.07216832059047 22.2218673296685 0 0 0
183 1 8.919543294541164 36.07216919135319 19.992965890973725 0 0 0
184 1 11.139511715677477 36.07217051622408 17.764078023090693 0 0 0
185 1 13.3594726911503 36.07217563056096 15.535196154503481 0 0 0
186 1 15.579428820237284 36.07219351941984 13.306312256845686 0 0 0
187 1 17.799376633862096 36.072237142055755 11.07741356883486 0 0 0
188 1 20.019322468851627 36.07230948457588 8.848486855990883 0 0 0
189 1 22.239280851679354 36.07242600073749 6.619506672328804 0 0 0
190 1 24.45930811198455 36.07254111886171 4.390490302134708 0 0 0
1586 1 13.359503641451774 6.351251686681443 22.22193218833716 0 0 0
192 1 8.91954169471277 36.07216709307269 24.450795086628034 0 0 0
193 1 11.139522170769855 36.07216779011469 22.22189945879178 0 0 0
194 1 13.35950254026201 36.07216713761033 19.99301563270195 0 0 0
195 1 15.579480009851858 36.0721683897454 17.764134651531307 0 0 0
196 1 17.799457836721377 36.07218203925678 15.535251196045921 0 0 0
197 1 20.019439942174873 36.07221102329186 13.306355003550891 0 0 0
198 1 22.239428996934436 36.07226298981853 11.077433807199236 0 0 0
199 1 24.459430558601348 36.072355095315885 8.848475504347851 0 0 0
1585 1 13.35950618172163 4.786997770228717 24.450836453159834 0 0 0
201 1 13.359506190228656 36.072167904856975 24.450836273252044 0 0 0
202 1 15.57949251922758 36.072167408053105 22.221956909362152 0 0 0
203 1 17.799480781582947 36.0721717815012 19.993083249452102 0 0 0
204 1 20.01947384762806 36.07218554996286 17.764205768883304 0 0 0
205 1 22.23947452748046 36.07221485231842 15.535316683697644 0 0 0
206 1 24.459493476607836 36.07226386915845 13.306405711357986 0 0 0
1584 1 11.139521632412327 6.351251212815504 24.45081875680748 0 0 0
208 1 17.79948762213576 36.07217177820785 24.45090582731178 0 0 0
209 1 20.019483508400285 36.072181726347665 22.2220442791369 0 0 0
210 1 22.23948716124355 36.07220064379794 19.993177555636183 0 0 0
211 1 24.459505235057698 36.07224164394153 17.764305898311232 0 0 0
1599 1 17.799487840100568 4.786994009201126 24.450905996141717 0 0 0
213 1 22.239496028478847 36.072190428632595 24.451004969306265 0 0 0
214 1 24.45951275048557 36.072219184230825 22.222159434390758 0 0 0
1600 1 17.799479608329243 6.351243777741978 22.22200564396036 0 0 0
1581 1 24.45931437001305 6.3508072172124495 6.619395991937612 0 0 0
1580 1 24.459430840525712 4.786823730788609 8.8484761500407 0 0 0
1579 1 22.239338656134596 6.3510216986284265 8.848428659126933 0 0 0
1578 1 22.239429489963314 4.7869126898915 11.077433776760168 0 0 0
220 1 2.2594961854478517 32.94372292111119 4.390439989877166 0 0 0
1577 1 20.019380316398173 6.351142026792706 11.077401122258465 0 0 0
1576 1 20.019440686462758 4.786961401558843 13.306355690334723 0 0 0
1575 1 17.799422304526043 6.351206589961309 13.30632273671454 0 0 0
1574 1 17.79945719093261 4.786987174016162 15.535252398495652 0 0 0
225 1 2.2595728255277954 32.94370321791724 8.848318987411906 0 0 0
226 1 2.259545249861035 34.507958251670615 6.6193814581831685 0 0 0
227 1 4.479426456247613 32.943731380839004 6.619404330272045 0 0 0
228 1 4.47939730173711 34.50798747147156 4.390459901541753 0 0 0
229 1 6.6992535199223635 32.94378493593632 4.390483782129128 0 0 0
1573 1 15.57945594971758 6.351240195639805 15.535221054646504 0 0 0
1572 1 15.579479754049892 4.786999030585776 17.76413562884396 0 0 0
1571 1 13.359488616172316 6.3512506345057 17.76410881881322 0 0 0
1570 1 13.359502677375225 4.78699955450536 19.993015593472325 0 0 0
234 1 2.2596318311831523 32.94368528671583 13.306177226425842 0 0 0
235 1 2.259611385972443 34.50794213703465 11.07724709256573 0 0 0
236 1 4.479529695485758 32.94369887463958 11.077269153214317 0 0 0
237 1 4.479495023154556 34.50795987349852 8.84833752434584 0 0 0
238 1 6.699392630829602 32.94373356524587 8.848367072683113 0 0 0
239 1 6.699350010007475 34.507995478497065 6.61942769246368 0 0 0
240 1 8.919221435173727 32.94379913648498 6.61945537735583 0 0 0
241 1 8.919185713529377 34.50805347051125 4.390507125905309 0 0 0
242 1 11.139027260844303 32.94390102166944 4.390519457736714 0 0 0
1569 1 11.139518732739756 6.351251196248036 19.99299446415842 0 0 0
1568 1 11.139522197637747 4.786998148113036 22.22189976806713 0 0 0
1567 1 8.919543847239382 6.351250397031315 22.221885639353932 0 0 0
1566 1 8.91954168325245 4.786998890785981 24.450795181829445 0 0 0
247 1 2.259650232224907 32.94367390180196 17.764024247670715 0 0 0
248 1 2.2596444781099616 34.50793000040436 15.535097686608509 0 0 0
249 1 4.47959154340622 32.943677517710626 15.535112806558125 0 0 0
250 1 4.4795727566443775 34.50793634225774 13.306188046791132 0 0 0
251 1 6.69950934675218 32.94369004763238 13.30621509980574 0 0 0
252 1 6.699474986682681 34.50795405341183 11.077289136931448 0 0 0
253 1 8.919399867739495 32.943721481284506 11.077322089487513 0 0 0
254 1 8.919347198925315 34.50799310869768 8.848391506618853 0 0 0
255 1 11.139243915057152 32.9437960339918 8.8484180248048 0 0 0
256 1 11.139187059158434 34.50806704707941 6.619480298372856 0 0 0
257 1 13.359045321298435 32.94392853601634 6.619479478368279 0 0 0
258 1 13.359029675510234 34.508160505496846 4.390542225657951 0 0 0
259 1 15.57888304137465 32.94407529381291 4.390483439621129 0 0 0
1565 1 6.699567365881539 6.351252134721416 24.450788200086055 0 0 0
1718 1 22.239436103663756 1.6584993012038032 11.077458444473892 0 0 0
1719 1 22.23938671737838 3.2226778045767044 8.848511862768264 0 0 0
1562 1 24.459308786230128 4.7866398723354155 4.390490768893019 0 0 0
264 1 2.25964023028688 32.94366566284051 22.22186695132687 0 0 0
265 1 2.2596442067948 34.5079218735122 19.99294188478933 0 0 0
266 1 4.4796070213808274 32.94366692263098 19.992949583453683 0 0 0
267 1 4.479604190860086 34.50792325286018 17.76402630610152 0 0 0
268 1 6.69956408914805 32.94366936575048 17.764045951507793 0 0 0
269 1 6.699551090069426 34.50792746730521 15.535124736795135 0 0 0
270 1 8.919506568103133 32.943676026159736 15.535154399232594 0 0 0
271 1 8.919478514675047 34.50794077729653 13.306234018577566 0 0 0
272 1 11.13942883453274 32.943699859016185 13.306264688390323 0 0 0
273 1 11.139381068431367 34.507975468732134 11.077344694868867 0 0 0
274 1 13.35932112900851 32.94375821309247 11.077363724007693 0 0 0
275 1 13.35925463915074 34.50804602253142 8.848441707168549 0 0 0
276 1 15.579173880588638 32.943882065189406 8.848431748970338 0 0 0
277 1 15.579097609719256 34.508174369248074 6.6195034346606105 0 0 0
278 1 17.798983690960704 32.94409733941067 6.619425812323005 0 0 0
279 1 17.798991445945276 34.50829906150949 4.390514322663149 0 0 0
280 1 20.0189051210626 32.94426908742583 4.390331984118165 0 0 0
1561 1 22.239119338064913 6.350753001064329 4.390409084471914 0 0 0