LAMMPS data file via write_data, version 2 Aug 2023, timestep = 309, units = metal

7201 atoms
3 atom types

0.03958981874286126 53.3196099568367 xlo xhi
0.09425321894973354 37.63639878105048 ylo yhi
-22.3272458604779 75.68644563605753 zlo zhi

Masses

1 183.84
2 1.008
3 4.0026

Atoms # atomic

1 1 2.259590465623057 36.07214290574987 0.004645240332647295 0 0 0
2 1 6.699590185624973 36.07214471672061 0.004643178281073209 0 0 0
3 1 11.139581772967668 36.07215542128901 0.004631698432245286 0 0 0
4 1 15.579559177756975 36.07218491998741 0.004597329398353823 0 0 0
5 1 20.019542118383068 36.072225617615004 0.0045404571244147774 0 0 0
6 1 24.459573550668892 36.072260607089184 0.0044735522306350054 0 0 0
1703 1 24.459585588681364 3.222721019810114 2.1634744247648854 0 0 0
8 1 2.2595896145458227 32.94363144158285 0.004644314776823443 0 0 0
9 1 4.4795898258115034 34.50788799774672 0.004643836996981488 0 0 0
10 1 6.699584191307386 32.94363677113112 0.004637772223434111 0 0 0
11 1 8.91958271461417 34.5078962255471 0.004634741600572982 0 0 0
12 1 11.139562194483759 32.943658766229156 0.00461161577611064 0 0 0
13 1 13.359559521523474 34.507924273472774 0.0046040763376343835 0 0 0
14 1 15.579525901991554 32.943705931955755 0.004556419404341662 0 0 0
15 1 17.79953148647752 34.50797335763722 0.004548442404967166 0 0 0
16 1 20.019507724489195 32.94378038441377 0.00445795978382199 0 0 0
17 1 22.239538905674166 34.50803713729813 0.004458039413143192 0 0 0
18 1 24.459561110040863 32.94385500253755 0.004340514227611683 0 0 0
1682 1 22.239571299760225 1.658509780787238 2.163501910262117 0 0 0
20 1 2.2595876639977805 29.815120258609905 0.004642390654963145 0 0 0
21 1 4.479585845759829 31.379378008685666 0.004640503317739743 0 0 0
22 1 6.699573344680411 29.815128990141982 0.0046287365035612565 0 0 0
23 1 8.919567231872529 31.37939300387864 0.0046202955162873 0 0 0
24 1 11.139534470883524 29.815157939143386 0.004584398322998509 0 0 0
25 1 13.359527157383571 31.379432373048534 0.004568341972448249 0 0 0
26 1 15.579479066566316 29.81521632672695 0.004491308984459936 0 0 0
27 1 17.79948682568475 31.37950235119171 0.004470016757206824 0 0 0
28 1 20.019455051921355 29.815313456079128 0.0043223116023297006 0 0 0
29 1 22.239503062555166 31.379602178043044 0.004311910845435606 0 0 0
30 1 24.459545995517747 29.815416577590184 0.004102221813479339 0 0 0
1681 1 20.019559717524203 3.2227337503491116 2.163522725909404 0 0 0
32 1 2.2595853396082637 26.686608460854895 0.004640093840687735 0 0 0
33 1 4.479579660729454 28.250867448702795 0.004635699946539351 0 0 0
34 1 6.69956071920759 26.68661784117522 0.0046187670137765565 0 0 0
35 1 8.919546485070601 28.25088574108116 0.004602230608031346 0 0 0
36 1 11.139501768824045 26.68664655848825 0.0045523875506640775 0 0 0
37 1 13.35948445369399 28.250929685293958 0.004519643397983828 0 0 0
38 1 15.579422967256647 26.68670412053713 0.004409458968105263 0 0 0
39 1 17.799427007433774 28.25100920312584 0.004358424078800285 0 0 0
40 1 20.019395655807145 26.686798811027533 0.0041346794217503174 0 0 0
41 1 22.239461459451377 28.251126210852888 0.004078484336361609 0 0 0
42 1 24.459524184286792 26.68689096973445 0.0038658591275244117 0 0 0
1661 1 17.79955943165321 1.6585096844157121 2.1635502922900196 0 0 0
44 1 2.2595834721497474 23.55809564469281 0.004638280804525071 0 0 0
45 1 4.479573609032069 25.12235480142724 0.004631237425962537 0 0 0
46 1 6.699550402418366 23.55810173175384 0.004611002284965084 0 0 0
47 1 8.919526066746128 25.12237015833004 0.00458466952554712 0 0 0
48 1 11.13947497611195 23.55811999120853 0.004525207410021747 0 0 0
49 1 13.359441432406188 25.122406395507785 0.004467743072483784 0 0 0
50 1 15.579375185441432 23.558156247736076 0.00433125934133098 0 0 0
51 1 17.79936634723531 25.12247079275235 0.004227605809911087 0 0 0
52 1 20.01934723142596 23.558216973337057 0.003991594061817269 0 0 0
53 1 22.239415863106426 25.12256133592838 0.003880987660871441 0 0 0
54 1 24.45951644520011 23.558252620375683 0.0036997180572387457 0 0 0
1660 1 15.579563970364052 3.222744813024251 2.163569212269712 0 0 0
56 1 2.25958282437397 20.42958205108893 0.004637661079585098 0 0 0
57 1 4.479569843822641 21.993839941701786 0.004628618065918011 0 0 0
58 1 6.699546508291315 20.429581992087897 0.004608099764777534 0 0 0
59 1 8.919513019604503 21.993845890805588 0.004573507277441273 0 0 0
60 1 11.139463298560864 20.42958183133456 0.004513266799454192 0 0 0
61 1 13.35941254331161 21.99386003065229 0.004430427746006589 0 0 0
62 1 15.579357499531676 20.429581563658655 0.004300271001738657 0 0 0
63 1 17.79933025884714 21.993885666604633 0.004145652013507254 0 0 0
64 1 20.019336739606864 20.429581227728633 0.003943538762178262 0 0 0
65 1 22.239403896269927 21.993914340786706 0.0037712978530305354 0 0 0
66 1 24.459515449517433 20.429581203875074 0.00362676902244094 0 0 0
1644 1 13.359575763792014 1.6585094799293862 2.163590192069752 0 0 0
68 1 2.2595835096446115 17.301068467461484 0.00463831686917359 0 0 0
69 1 4.47956988638115 18.86532412633441 0.00462866254827194 0 0 0
70 1 6.699550541220747 17.301062297170123 0.0046111642210391055 0 0 0
71 1 8.919513132728841 18.865317983997354 0.004573657851550528 0 0 0
72 1 11.13947526613608 17.301043795029493 0.00452565030324608 0 0 0
73 1 13.359412732423424 18.865303428846804 0.0044307692070603534 0 0 0
74 1 15.579375592878304 17.301007094140918 0.004332142147350227 0 0 0
75 1 17.79933050189709 18.865277205520226 0.004146292735640711 0 0 0
76 1 20.019347628488116 17.30094590842677 0.003993088284020956 0 0 0
77 1 22.239403991647357 18.86524804841046 0.0037722408316976535 0 0 0
78 1 24.459516431291327 17.300910143949782 0.003701646593872878 0 0 0
1643 1 11.139581886765493 3.2227572548330152 2.163599740231236 0 0 0
80 1 2.2595853920998135 14.17255567142601 0.004640144127565052 0 0 0
81 1 4.479573713980385 15.736809306597891 0.004631344380670632 0 0 0
82 1 6.699560927995866 14.172546284082454 0.00461900553813751 0 0 0
83 1 8.919526353088123 15.736793855881889 0.004585047102992023 0 0 0
84 1 11.13950222037139 14.172517500186963 0.004553070165128081 0 0 0
85 1 13.359441918801888 15.736757381820356 0.004468611487643044 0 0 0
86 1 15.579423593922039 14.172459779044186 0.004410821762327228 0 0 0
87 1 17.79936690668919 15.736692621873063 0.00422915917273049 0 0 0
88 1 20.019396185577964 14.172364957865385 0.004136944835781665 0 0 0
89 1 22.23941618151545 15.736601949886081 0.0038833881429989297 0 0 0
90 1 24.459524232034507 14.172272942391233 0.003868901899780027 0 0 0
1631 1 8.919588582876433 1.6585093352841271 2.1636079295424393 0 0 0
92 1 2.2595877053116022 11.044043885378883 0.0046424311383460835 0 0 0
93 1 4.479579772914989 12.608296702715208 0.004635812730675597 0 0 0
94 1 6.699573532185163 11.044035205710452 0.004628945237250596 0 0 0
95 1 8.919546816818768 12.608278443030562 0.004602658126953565 0 0 0
96 1 11.139534909903592 11.044006355876308 0.00458504410077486 0 0 0
97 1 13.359485035820834 12.608234501306296 0.004520671577047637 0 0 0
98 1 15.579479695913964 11.043948067161846 0.004492660404940276 0 0 0
99 1 17.799427652748243 12.608154963611847 0.004360269014087771 0 0 0
100 1 20.01945556092707 11.043851101641156 0.004324520554596 0 0 0
101 1 22.239461758820216 12.60803811039637 0.004081313254794856 0 0 0
102 1 24.459545992550492 11.043748185512818 0.004105050963409652 0 0 0
1630 1 6.6995899312138025 3.2227636980458043 2.1636102972261417 0 0 0
104 1 2.2595896339668196 7.915532699990889 0.004644335095166409 0 0 0
105 1 4.4795859202511785 9.479786156536473 0.004640578721567816 0 0 0
106 1 6.699584301404634 7.915527429274255 0.004637894418907546 0 0 0
107 1 8.91956749463442 9.479771266566623 0.004620623812524532 0 0 0
108 1 11.139562517056353 7.915505605004283 0.00461206842630994 0 0 0
109 1 13.359527655640703 9.479732073846947 0.004569192639024054 0 0 0
110 1 15.57952639163387 7.91545868928436 0.004557407949385164 0 0 0
111 1 17.799487389579294 9.479662316211375 0.004471607750318021 0 0 0
112 1 20.019508107106216 7.915384595229473 0.0044596234083873485 0 0 0
113 1 22.239503318569618 9.479562794667418 0.0043141874420863134 0 0 0
114 1 24.45956110867808 7.915310205514817 0.004342426047737292 0 0 0
1622 1 4.479590888520787 1.658509291556868 2.1636119523989703 0 0 0
116 1 2.2595904706605574 4.787021228551711 0.004645246340924187 0 0 0
117 1 4.479589855938565 6.351276153828513 0.004643869088170439 0 0 0
118 1 6.699590225154773 4.787019449071798 0.00464322293418548 0 0 0
119 1 8.919582858072925 6.3512680234115315 0.004634914662043456 0 0 0
120 1 11.139581933151257 4.787008890827874 0.004631906954816554 0 0 0
121 1 13.359559866967516 6.351240219373784 0.004604624655839705 0 0 0
122 1 15.579559470553443 4.786979730810987 0.004597882840396753 0 0 0
123 1 17.79953187907544 6.351191465160527 0.004549438105016967 0 0 0
124 1 20.019542333072444 4.786939457196906 0.004541273468225981 0 0 0
125 1 22.239539054426732 6.351128077460535 0.004459461776642939 0 0 0
126 1 24.459573532934698 4.786904632650129 0.004474453701016188 0 0 0
1621 1 2.2595904097390096 3.2227651328767832 2.1636122458492286 0 0 0
128 1 2.2595906333390716 1.6585092846356768 0.004645447278556448 0 0 0
129 1 4.479591241631848 3.2227651296653095 0.0046451561370497805 0 0 0
130 1 6.699591810287228 1.6585092921120872 0.004644726032793028 0 0 0
131 1 8.919590513139422 3.2227630599734116 0.004642263077759736 0 0 0
132 1 11.139588969909186 1.6585093458768947 0.004639083032719291 0 0 0
133 1 13.359580258231931 3.2227532672955825 0.004627353999295243 0 0 0
134 1 15.579573232483645 1.6585095269825008 0.004615052148282542 0 0 0
135 1 17.799558180433138 3.222733458874093 0.004586940393851197 0 0 0
136 1 20.019554839491803 1.6585097765754624 0.004565011352826516 0 0 0
137 1 22.23955718693254 3.222712274250198 0.004528255313090682 0 0 0
138 1 24.459577995190642 1.6585098526788342 0.004512817831520185 0 0 0
1563 1 24.45957973262137 6.35113554340779 2.1633883464593877 0 0 0
140 1 4.479591235523604 0.09425344513302747 0.004645149134777805 0 0 0
141 1 8.919590473681637 0.09425556731779494 0.004642216240840911 0 0 0
142 1 13.35958013363847 0.09426558680353736 0.004627173938299829 0 0 0
143 1 17.799558032559595 0.0942858551681951 0.004586562739164094 0 0 0
144 1 22.2395571323028 0.09430743436339509 0.004527799510476751 0 0 0
1542 1 22.239567082125223 4.786942959325644 2.1634723222231105 0 0 0
1541 1 20.019548474111154 6.351186694550521 2.1634782837402775 0 0 0
1521 1 17.799553653306333 4.786972912446375 2.163537047788088 0 0 0
1520 1 15.57954925181544 6.351226763300908 2.163545991186091 0 0 0
1240 1 15.579470488807923 12.608217276528814 2.163416172230807 0 0 0
1504 1 13.359566728920274 4.78699483766396 2.1635794216703212 0 0 0
1224 1 13.3595139872252 11.043991743227624 2.1635128670187282 0 0 0
1503 1 11.139568127794382 6.3512544328641685 2.1635857823873446 0 0 0
1491 1 8.91958372145727 4.787013171630187 2.163603584046209 0 0 0
1490 1 6.69958471020142 6.35127152907117 2.163606021674057 0 0 0
1223 1 11.139517869728037 12.608265559747892 2.1635341561044568 0 0 0
1211 1 8.919551479612817 11.044024260595318 2.1635758205325857 0 0 0
1482 1 4.479589791114192 4.787020010439168 2.1636110568361713 0 0 0
148 1 4.479589759095067 36.07214414646069 2.163611027519098 0 0 0
153 1 8.919583589461899 36.07215109432823 2.1636034391699632 0 0 0
160 1 13.359566487632696 36.07216967377607 2.1635790205855576 0 0 0
169 1 17.799553522930086 36.07219190096748 2.1635363924117 0 0 0
180 1 22.23956708208118 36.072222165058676 2.163471408442387 0 0 0
1481 1 2.259589575915055 6.351276492753523 2.16361144048245 0 0 0
1423 1 24.459568492176796 9.479538923200938 2.1631728701110697 0 0 0
221 1 2.2595895530495627 34.50788765237182 2.163611420202286 0 0 0
222 1 4.479585740022584 32.94363428293899 2.163608039500054 0 0 0
230 1 6.699584594068721 34.50789268328082 2.1636059072565805 0 0 0
231 1 8.919570194126985 32.94364728786152 2.163591549513135 0 0 0
243 1 11.139567845012648 34.50790994728856 2.163585397236263 0 0 0
244 1 13.35954594882833 32.943674189387266 2.1635531344542014 0 0 0
260 1 15.579548972991297 34.50793783123819 2.1635452167874347 0 0 0
261 1 17.799532315509655 32.94371616380637 2.163485682852904 0 0 0
281 1 20.019548359870157 34.507978280759325 2.163477026126834 0 0 0
282 1 22.239547678150245 32.94379486824037 2.163355261639314 0 0 0
303 1 24.45957977197081 34.50802955707354 2.1633869121862093 0 0 0
1402 1 22.23954772625812 7.915370252755958 2.1633572779487937 0 0 0
1401 1 20.019514477967647 9.479637650969979 2.1633571049961726 0 0 0
361 1 2.2595873962880013 31.3793766423384 2.1636095643938775 0 0 0
362 1 4.479578987382952 29.815123975433917 2.1636034388463967 0 0 0
370 1 6.699573916482528 31.379384895514036 2.163597827144179 0 0 0
371 1 8.919551117737097 29.815139959569837 2.163575372988708 0 0 0
383 1 11.139546098278345 31.379407247002966 2.1635630966688333 0 0 0
384 1 13.359513478237107 29.81517253725955 2.1635118263067707 0 0 0
400 1 15.57951995610976 31.379446019867892 2.1634961451198347 0 0 0
401 1 17.799485066077725 29.81523873714295 2.163378687771332 0 0 0
421 1 20.019514207599 31.37952724601478 2.1633548373959246 0 0 0
422 1 22.239508782683153 29.815357565084444 2.1631289740266126 0 0 0
443 1 24.459568529485153 31.379626265352318 2.163169961026042 0 0 0
1381 1 17.79953261516791 7.915448523213345 2.1634870178899197 0 0 0
1380 1 15.579520401914262 9.479718438772265 2.1634973911958353 0 0 0
501 1 2.259584599841648 28.250865122518498 2.163607160946149 0 0 0
502 1 4.479571655977028 26.686611964916136 2.1635985912622706 0 0 0
510 1 6.699560750021276 28.250874394861054 2.1635881296911847 0 0 0
511 1 8.919530592326703 26.686627113089898 2.1635575268071596 0 0 0
523 1 11.139517397496629 28.25089858454613 2.1635333944867745 0 0 0
524 1 13.359472090836476 26.68665940668865 2.163457408587071 0 0 0
540 1 15.579469883931946 28.250946865269317 2.163414575517784 0 0 0
541 1 17.799419364566976 26.68672962147358 2.1632310355272146 0 0 0
561 1 20.019452260777264 28.251048864820568 2.163157710875432 0 0 0
562 1 22.239450628444132 26.68686588385016 2.162851814560889 0 0 0
583 1 24.459541007069117 28.251179444926915 2.162863405025409 0 0 0
1364 1 13.35954632560489 7.915490249677882 2.163553875293575 0 0 0
1363 1 11.139546504771792 9.479757072340458 2.1635637123586333 0 0 0
641 1 2.259581962114554 25.122352605211475 2.1636049023047046 0 0 0
642 1 4.479566110721656 23.558097721508766 2.1635950913351074 0 0 0
650 1 6.69954831057408 25.122360071178427 2.1635791858426816 0 0 0
651 1 8.919513472098112 23.55810696720471 2.1635426824796187 0 0 0
663 1 11.139488162730087 25.1223793702517 2.1635021213431003 0 0 0
664 1 13.35943464524601 23.55812824595941 2.1634064522133754 0 0 0
680 1 15.579415736744814 25.12242126899656 2.16332002726181 0 0 0
681 1 17.799359166636822 23.558178206416184 2.163097842833872 0 0 0
701 1 20.01938386670423 25.122516703339375 2.162949406454319 0 0 0
702 1 22.23940844299399 23.5582576979576 2.162646188307991 0 0 0
723 1 24.459515756539773 25.122610217950267 2.1625898645444286 0 0 0
1351 1 8.919570458687495 7.915517000253792 2.1635918566051524 0 0 0
1350 1 6.699574129981308 9.479779320256855 2.163598039380079 0 0 0
781 1 2.2595805144808563 21.993839035564307 2.1636036936689687 0 0 0
782 1 4.479564088505882 20.42958202159834 2.163593884131508 0 0 0
790 1 6.69954118948733 21.993841765428453 2.163574112534063 0 0 0
791 1 8.919507769873121 20.429581915355424 2.163537733050982 0 0 0
1797 1 24.459585611597277 0.0942984752111542 2.1634740011902434 0 0 0
803 1 11.1394685693283 21.99384942133251 2.1634810554917396 0 0 0
804 1 13.359417243300285 20.42958171795269 2.163383958812386 0 0 0
820 1 15.579374219874568 21.99386707867003 2.1632518590172545 0 0 0
821 1 17.79933208812559 20.42958149889175 2.1630443692571473 0 0 0
841 1 20.019340108128656 21.993902730524884 2.162820744083772 0 0 0
842 1 22.23939323140845 20.429581623221914 2.1625828790530575 0 0 0
863 1 24.459502462444718 21.993930009968647 2.1624843711409 0 0 0
1342 1 4.479585826969442 7.915529891963751 2.1636081155863147 0 0 0
1341 1 2.2595874492450445 9.47978750795708 2.1636096082779677 0 0 0
921 1 2.2595805432368805 18.865325058797467 2.163603717380992 0 0 0
1786 1 20.019559700192254 0.09428573299501403 2.1635223608459024 0 0 0
922 1 4.479566213690902 17.301066346157725 2.1635951870089407 0 0 0
930 1 6.69954127834842 18.865322204981364 2.163574211473076 0 0 0
931 1 8.919513710326141 17.30105693534589 2.1635430022658815 0 0 0
943 1 11.139468735457315 18.865314263261013 2.1634813317264814 0 0 0
944 1 13.359435019597065 17.30103535631327 2.1634072066715824 0 0 0
960 1 15.579374446641191 18.865296171293444 2.163252411361471 0 0 0
961 1 17.799359608714884 17.300985067145984 2.1630992744148028 0 0 0
981 1 20.019340351219476 18.865260362966815 2.1628217590416754 0 0 0
982 1 22.2394087856666 17.300905850777784 2.1626486024076845 0 0 0
1776 1 15.579563851987041 0.09427434027025705 2.163568928786255 0 0 0
1003 1 24.459502627278255 18.86523348249095 2.162485668981151 0 0 0
1283 1 24.459541031905527 12.607985222717144 2.162866966951729 0 0 0
1262 1 22.239508991224163 11.043807386336285 2.1631322625494454 0 0 0
1061 1 2.2595820312719384 15.736811509817501 2.1636049589509954 0 0 0
1062 1 4.479571813709537 14.172552156829191 2.163598731948086 0 0 0
1070 1 6.699548534717602 15.736803979465124 2.1635794313076318 0 0 0
1071 1 8.919530957000584 14.172536957016652 2.163558002665032 0 0 0
1768 1 11.139581782093098 0.09426153997348506 2.1635996105475948 0 0 0
1083 1 11.139488575569935 15.736784516015074 2.1635027898701726 0 0 0
1084 1 13.359472644144667 14.172504547978587 2.163458524726599 0 0 0
1100 1 15.57941630760835 15.736742383857882 2.1633214660474316 0 0 0
1101 1 17.79942002201574 14.172434303698118 2.1632332948436828 0 0 0
1121 1 20.019384350149128 15.736646941351538 2.1629519858718163 0 0 0
1762 1 6.699589898537185 0.09425491832617183 2.1636102650577484 0 0 0
1122 1 22.239450892528865 14.172298363296637 2.1628552792273377 0 0 0
1143 1 24.459515934615634 15.736554016325588 2.1625932799990992 0 0 0
1261 1 20.019452773505442 12.608115579309814 2.163160716382816 0 0 0
1758 1 2.2595904047736917 0.09425344157216387 2.1636122410609304 0 0 0
1241 1 17.799485580458125 11.043925743027321 2.16338072104402 0 0 0
1201 1 2.2595846754844104 12.608299017202341 2.1636072223262497 0 0 0
1202 1 4.479579130122484 11.044040190279091 2.1636035634649136 0 0 0
1210 1 6.699561014726101 12.608289758362238 2.1635884056024937 0 0 0
7 1 0.03958989048063444 34.50788692391668 0.004645117901041328 0 0 0
19 1 0.03959001509146276 31.379375393382247 0.004644116612102027 0 0 0
31 1 0.03959034648575965 28.250863795577164 0.0046424779508155 0 0 0
43 1 0.039590806222612684 25.1223515958734 0.004640762928556983 0 0 0
55 1 0.0395912097058968 21.99383867283699 0.004639675041984977 0 0 0
357 1 0.039590445417402975 29.815120281299187 2.1636095006966993 0 0 0
1477 1 0.03958990081527958 4.787021067606386 2.1636121513155224 0 0 0
217 1 0.03959003764364155 32.94363166654138 2.163611187854101 0 0 0
497 1 0.03959104033060612 26.68660833930622 2.1636075044357486 0 0 0
145 1 0.039589898448802785 36.072143066987834 2.1636121463165567 0 0 0
917 1 0.03959171476147105 17.301068609501588 2.163605921948582 0 0 0
1337 1 0.03959004739174077 7.915532472205196 2.1636112022736302 0 0 0
1057 1 0.03959106241896393 14.172555790305632 2.1636075335111387 0 0 0
67 1 0.03959121532211185 18.865325446395776 0.004639683887275707 0 0 0
79 1 0.03959081929485819 15.736812530953513 0.0046407839700587745 0 0 0
1197 1 0.03959046364280283 11.044043857087692 2.1636095259162973 0 0 0
91 1 0.03959035924962251 12.6083003389864 0.004642499576050697 0 0 0
637 1 0.03959169952200625 23.558095508160257 2.1636059022174052 0 0 0
777 1 0.03959198402552744 20.4295820558693 2.1636052902039533 0 0 0
1617 1 0.03958984788536668 1.6585092851393102 2.1636123985306237 0 0 0
139 1 0.03958983222717194 0.09425325167419277 0.004645445737486946 0 0 0
127 1 0.039589832388642776 3.2227653171855137 0.0046454467747106265 0 0 0
115 1 0.03958989237261079 6.351277209415821 0.004645123142412189 0 0 0
103 1 0.03959002247171384 9.479788742757076 0.004644130213747799 0 0 0
1598 1 15.579396260316047 6.35112745259519 24.45075414486144 0 0 0
1596 1 24.459533310176393 6.350821645376607 11.076718599621758 0 0 0
147 1 2.2595892066345002 36.07214413296568 4.390204517294148 0 0 0
1595 1 24.45954176394045 4.786677042862691 13.305745939028412 0 0 0
1594 1 22.2394100418218 6.3507779910184095 13.305733460945243 0 0 0
150 1 2.2595845903976155 36.07214773488574 8.848035841349585 0 0 0
151 1 4.4795824445502275 36.07214927104561 6.6191135125732945 0 0 0
152 1 6.699582119811784 36.072150934979256 4.3901984929429245 0 0 0
1593 1 22.239438298831107 4.7866389228766355 15.534764435200257 0 0 0
1592 1 20.019286314564496 6.350758819078726 15.534772997082127 0 0 0
155 1 2.2595775684314603 36.07215217788353 13.30589830028138 0 0 0
156 1 4.479565648327935 36.072157753358596 11.076958574561852 0 0 0
157 1 6.69955932105182 36.072164243931326 8.848023642382238 0 0 0
158 1 8.919557407549863 36.07216962511752 6.619095654322745 0 0 0
159 1 11.139559155487902 36.07217234747607 4.390176389615945 0 0 0
1591 1 20.019339925449568 4.786663246308747 17.763793946660773 0 0 0
1590 1 17.799209203461395 6.350839592292906 17.763800620043035 0 0 0
162 1 2.25957396280051 36.07215385292063 17.763789538984938 0 0 0
163 1 4.479548329475634 36.07216338274114 15.534838945520892 0 0 0
164 1 6.699525739179476 36.072177398166446 13.305887187710733 0 0 0
165 1 8.919513575401687 36.07218938897306 11.076937137628752 0 0 0
166 1 11.139514197091144 36.07219572524605 8.847994029229733 0 0 0
167 1 13.35952051216799 36.072199801254484 6.619059623112531 0 0 0
168 1 15.57953359793989 36.07219852611223 4.390136043137161 0 0 0
1589 1 17.799328252376185 4.78676608265501 19.99280122846888 0 0 0
1588 1 15.57927077179624 6.351005845875094 19.99279942821095 0 0 0
171 1 2.259579279839216 36.07215137390953 22.221695055068142 0 0 0
172 1 4.479550378967899 36.07216207408306 19.992744541176886 0 0 0
173 1 6.69950855084411 36.0721819175014 17.763790627067863 0 0 0
174 1 8.919469524111662 36.0722041639038 15.534830051445086 0 0 0
175 1 11.13945095284016 36.072222404411804 13.305865423881013 0 0 0
176 1 13.359461451296308 36.072227669851586 11.076903728201243 0 0 0
177 1 15.57948533092011 36.0722234971151 8.847952007808571 0 0 0
178 1 17.799506732515027 36.07222463808494 6.619013175102234 0 0 0
179 1 20.019536402506684 36.07222279085009 4.39008654280587 0 0 0
1587 1 15.579388137373767 4.786891434386786 22.22177094183926 0 0 0
181 1 4.479568945293547 36.072155463207665 24.45065330309931 0 0 0
182 1 6.699530826139839 36.0721730954261 22.22170707221417 0 0 0
183 1 8.919473833686657 36.07219957304044 19.99275613428693 0 0 0
184 1 11.139409279874096 36.07224071942006 17.763792451830795 0 0 0
185 1 13.359385432144888 36.07227187969412 15.534812377099943 0 0 0
186 1 15.5793919825805 36.07229675934641 13.305827193695121 0 0 0
187 1 17.79943330211006 36.072312028410174 11.076846679630632 0 0 0
188 1 20.01948632568144 36.07230442577646 8.84788420454311 0 0 0
189 1 22.23953168190006 36.07229017181352 6.618943026185749 0 0 0
190 1 24.459577029043995 36.07226460980268 4.390023978910484 0 0 0
1586 1 13.359385290638583 6.351141955831536 22.22176064744013 0 0 0
192 1 8.919520516594215 36.072182137205694 24.45067536444467 0 0 0
193 1 11.13945736154852 36.072211056332186 22.22173137739561 0 0 0
194 1 13.359385516193111 36.072263584435724 19.992777190906146 0 0 0
195 1 15.579320456095717 36.07234689068335 17.7637921797167 0 0 0
196 1 17.799342386658225 36.0724130887386 15.534785355490996 0 0 0
197 1 20.01941513464252 36.07241791275424 13.305778246042646 0 0 0
198 1 22.239496355300226 36.072408534646435 11.07679451009594 0 0 0
199 1 24.459568532085218 36.072381808605364 8.847831455008716 0 0 0
1585 1 13.359466303383343 4.786954017191139 24.45071029097595 0 0 0
201 1 13.35946476020531 36.0722133525862 24.45071079485149 0 0 0
202 1 15.57938552108269 36.07227853151922 22.221771596744926 0 0 0
203 1 17.799325306516586 36.07240659894008 19.992801174158874 0 0 0
204 1 20.019337357293583 36.07250957432378 17.76379361306825 0 0 0
205 1 22.239436766760612 36.0725326511386 15.534763935744406 0 0 0
206 1 24.459541002589297 36.072492646643674 13.305745243233424 0 0 0
1584 1 11.139474119213302 6.3512053954509025 24.45069747956263 0 0 0
208 1 17.799417314495365 36.07229372895039 24.450770423264206 0 0 0
209 1 20.01937746131217 36.0724151187248 22.221830980929436 0 0 0
210 1 22.23939778330259 36.07255512285356 19.99284198616127 0 0 0
211 1 24.459500583089238 36.072608273454705 17.76379067671472 0 0 0
1599 1 17.799419694714896 4.786877377685221 24.45076902532678 0 0 0
213 1 22.23945352202068 36.07241153904777 24.450854357112274 0 0 0
214 1 24.45948711815322 36.072548310615126 22.221880161220096 0 0 0
1600 1 17.799305631000966 6.350977706922178 22.22183227777193 0 0 0
1581 1 24.459568307256575 6.350993844240323 6.618853703248804 0 0 0
1580 1 24.4595682914271 4.786785896862347 8.847832544541994 0 0 0
1579 1 22.239490284997302 6.350951597217819 8.847802528486834 0 0 0
1578 1 22.239496505746455 4.786760196708667 11.076795543387405 0 0 0
220 1 2.2595860984829383 32.94363407100903 4.390202347584646 0 0 0
1577 1 20.019396846871068 6.350928648193783 11.076788681360117 0 0 0
1576 1 20.019416322657964 4.786752237684497 13.305779337969815 0 0 0
1575 1 17.799322377170174 6.350946140844258 13.305782702715739 0 0 0
1574 1 17.79934460218343 4.7867581833721395 15.534786229135664 0 0 0
225 1 2.2595781484728543 32.94363972873389 8.84803272578284 0 0 0
226 1 2.259585189929241 34.50789120146945 6.619115103394301 0 0 0
227 1 4.479569787529182 32.94364329429746 6.619107911668259 0 0 0
228 1 4.479583791686381 34.50789225972397 4.390200786421074 0 0 0
229 1 6.699567374369418 32.94364691458889 4.390189619446496 0 0 0
1573 1 15.57927280153217 6.350984397515953 15.534794233486135 0 0 0
1572 1 15.579322849967705 4.786823393298828 17.76379248930309 0 0 0
1571 1 13.359295799039321 6.351068972368609 17.76379471654754 0 0 0
1570 1 13.359387853044211 4.786905033276088 19.992777046997904 0 0 0
234 1 2.259568470636165 32.943646475026064 13.305896027680848 0 0 0
235 1 2.2595775341240176 34.5078969531813 11.076961741217037 0 0 0
236 1 4.479545417565006 32.943654913869175 11.076953700895265 0 0 0
237 1 4.479567190493399 34.50790181376884 8.84802919350813 0 0 0
238 1 6.699531016781969 32.94366604318003 8.848014043148476 0 0 0
239 1 6.699562848650115 34.50790730370452 6.6191023059422545 0 0 0
240 1 8.919526543180481 32.9436748265639 6.619080262987081 0 0 0
241 1 8.919563142402247 34.50791088986743 4.390183385120955 0 0 0
242 1 11.1395332870251 32.94367769231748 4.3901562921077755 0 0 0
1569 1 11.139395626510325 6.351160646870065 19.992770739193915 0 0 0
1568 1 11.139459028698656 4.786955896910733 22.221731140927552 0 0 0
1567 1 8.919479631084295 6.351215012779715 22.221722176548596 0 0 0
1566 1 8.919521682977138 4.786983409372244 24.450675027687957 0 0 0
247 1 2.2595653346578244 32.94364836540639 17.7637898472411 0 0 0
248 1 2.259570416024278 34.50790155919095 15.534840582366884 0 0 0
249 1 4.47952444044819 32.9436628421941 15.53483767001882 0 0 0
250 1 4.479545722391369 34.50791159599015 13.305892843416396 0 0 0
251 1 6.6994875843142525 32.94368512928099 13.305881804558298 0 0 0
252 1 6.699527249247544 34.50792550029656 11.076946372975078 0 0 0
253 1 8.919469096249886 32.94370512417405 11.076926344371056 0 0 0
254 1 8.919519926729057 34.50793663707995 8.84800442362344 0 0 0
255 1 11.139468408411464 32.94371816285227 8.847975602042302 0 0 0
256 1 11.13952354619151 34.50794312565761 6.619070833427479 0 0 0
257 1 13.359485195783286 32.94372293608049 6.619035977751189 0 0 0
258 1 13.359533731225222 34.50794368180381 4.390147237467497 0 0 0
259 1 15.579511146361588 32.94371753935951 4.390109397176031 0 0 0
1565 1 6.699537020069793 6.351246287130732 24.45066539408687 0 0 0
1718 1 22.23951543291066 1.6585114505423244 11.07682251357748 0 0 0
1719 1 22.239524496707578 3.2226721158642064 8.84788107601363 0 0 0
1562 1 24.45957693966185 4.786900942987343 4.390024927560554 0 0 0
264 1 2.2595719505312517 32.943645172129536 22.221697701347864 0 0 0
265 1 2.259571906905683 34.50790097182495 19.992742483920363 0 0 0
266 1 4.479528444968746 32.943660603901556 19.99274731154005 0 0 0
267 1 4.479535205403522 34.507914778502595 17.76379031747282 0 0 0
268 1 6.699472025615998 32.94368903447702 17.763792348539745 0 0 0
269 1 6.6994937468488684 34.507938454994196 15.53483434950289 0 0 0
270 1 8.919406052428734 32.94373324878602 15.534827339540554 0 0 0
271 1 8.919466484242374 34.507962077769925 13.305874182700974 0 0 0
272 1 11.139375072325754 32.943772902042504 13.305850745110563 0 0 0
273 1 11.139459172884898 34.50797848467593 11.07691556227462 0 0 0
274 1 13.35937304077263 32.943805027555456 11.076874758118468 0 0 0
275 1 13.35947644345249 34.507982161194676 8.847964905247037 0 0 0
276 1 15.579405472246728 32.943813471508896 8.84790855245664 0 0 0
277 1 15.579498545940977 34.50798260713927 6.619027319283229 0 0 0
278 1 17.799454620402596 32.94381221857188 6.618955628143438 0 0 0
279 1 17.79952354047841 34.50797681472679 4.390101446080877 0 0 0
280 1 20.019507927799197 32.94380429795925 4.389996885592805 0 0 0
1561 1 22.239542802368224 6.351115325301455 4.390003276359752 0 0 0
1560 1 22.23953171960314 4.786876328524898 6.618944191084492 0 0 0
283 1 2.259580166224656 34.507895658580736 24.450650244860903 0 0 0
284 1 4.479552771743388 32.943650538640114 24.450658428245703 0 0 0
285 1 4.479550472326411 34.50790853420038 22.221701207994855 0 0 0
286 1 6.699498892985078 32.9436770847136 22.22171437270982 0 0 0
287 1 6.6994986404734735 34.50793453723242 19.992751567004508 0 0 0
288 1 8.919417115638439 32.943723566628115 19.99276386273737 0 0 0
289 1 8.91943807112959 34.50797187363497 17.763792748099394 0 0 0
290 1 11.139316223430408 32.943796468881345 17.763796245990576 0 0 0