LAMMPS data file via write_data, version 2 Aug 2023, timestep = 15, units = metal

687 atoms
3 atom types

0 22.009546999999998 xlo xhi
0 22.009546999999998 ylo yhi
0 22.009546999999998 zlo zhi

Masses

1 183.84
2 1.008
3 4.0026

Atoms # atomic

1 1 22.00925232779725 22.009544816163473 7.524160531874743e-05 -1 -1 0
2 1 1.5715193699582881 1.5720138655777824 1.5721091499449533 0 0 0
3 1 3.1433149948187116 22.0095444061567 0.0002522436940382568 0 -1 0
4 1 4.715440659676386 1.5718502374024785 1.572108830374469 0 0 0
5 1 6.287648172970476 22.00954373656344 0.0003964174940537934 0 -1 0
6 1 7.860026567174297 1.5717171357878996 1.5721083421309632 0 0 0
7 1 9.432486206375934 22.00954396686655 0.0004330574958000478 0 -1 0
8 1 11.00494927754867 1.5716748006601307 1.572107611690504 0 0 0
9 1 12.577409059173167 22.009544687123594 0.00038982067693315366 0 -1 0
10 1 14.149786929217486 1.5717129879554212 1.57210744318925 0 0 0
11 1 15.72199418641294 22.00954516700261 0.00025731037129628025 0 -1 0
12 1 17.29411993104137 1.5718582450471261 1.5721080551528308 0 0 0
13 1 18.865915118094943 22.009545542040996 9.507054631569537e-05 0 -1 0
14 1 20.437727956652157 1.5720353321513 1.572108491370992 0 0 0
15 1 22.00949213652945 3.1441747285624464 6.587752114384485e-05 -1 0 0
16 1 1.5718807512192259 4.71633037769073 1.5721087317207407 0 0 0
17 1 3.1433337388826725 3.1439042012097533 0.00031001203359934 0 0 0
18 1 4.715397188236243 4.715811792579444 1.572108488683337 0 0 0
19 1 6.287575742829567 3.1435397014388355 0.000503433490866718 0 0 0
20 1 7.859886967889607 4.715363808473925 1.5721076696818586 0 0 0
21 1 9.432434208503942 3.1433365807114075 0.0005832703674943302 0 0 0
22 1 11.004938485621954 4.715214414426717 1.5721068040845576 0 0 0
23 1 12.577476642483436 3.143345610633106 0.0005531760860578391 0 0 0
24 1 14.15004130554398 4.715294789892515 1.572106628400906 0 0 0
25 1 15.722212121699778 3.1435246449252667 0.00037860749910219245 0 0 0
26 1 17.294539869782387 4.715661800935863 1.5721072390070914 0 0 0
27 1 18.866150794607535 3.1439208169654007 0.00011956852251994618 0 0 0
28 1 20.43807149401383 4.716230522276717 1.5721081104581962 0 0 0
29 1 0.0003698558449688371 6.288487659328377 22.009540840959072 0 0 -1
30 1 1.5722652025643533 7.860621259910267 1.5721081265744787 0 0 0
31 1 3.1438232343672063 6.2884076467013905 8.793313156680187e-05 0 0 0
32 1 4.7158078295157475 7.860412378834367 1.5721079034282548 0 0 0
33 1 6.287423261821651 6.287579751099921 0.0007513694786160201 0 0 0
34 1 7.859731528490705 7.859737813215566 1.5721068062300905 0 0 0
35 1 9.432266982604855 6.287140505398044 0.0010419441972988205 0 0 0
36 1 11.004930354522344 7.859486243593407 1.5721057995733214 0 0 0
37 1 12.577686202384808 6.287088376252017 0.0011268084443135915 0 0 0
38 1 14.150524946357402 7.859468339341022 1.5721056903289603 0 0 0
39 1 15.722803186822585 6.287306067817794 0.0008211604842310609 0 0 0
40 1 17.294817237611078 7.860065434754249 1.5721063236449961 0 0 0
41 1 18.866524116142863 6.288116057367412 0.00019047320727936363 0 0 0
42 1 20.43836710867754 7.860494531891727 1.5721075720759299 0 0 0
43 1 0.0006467538444421742 9.432694346460949 22.00949298571599 0 0 -1
44 1 1.5724240769391613 11.004772048709144 1.5721079110016245 0 0 0
45 1 3.1441890388939684 9.432694504474812 22.009498732363976 0 0 -1
46 1 4.715993352316449 11.004770815489136 1.572107710736745 0 0 0
47 1 6.287850254294658 9.432468684362638 0.0002851792032094122 0 0 0
48 1 7.859838955248641 11.004770245759607 1.5721063735331429 0 0 0
49 1 9.432125071876301 9.431980368797744 0.0016375861536186464 0 0 0
50 1 11.005000327893889 11.004770738793377 1.5721051932025716 0 0 0
51 1 12.578079704151225 9.431840839738765 0.002152407737833271 0 0 0
52 1 14.150635072432378 11.004771749663858 1.5721051824241814 0 0 0
53 1 15.722982537384551 9.432177355306239 0.0009854284952432583 0 0 0
54 1 17.294897476263856 11.004772998335316 1.572105864535659 0 0 0
55 1 18.86670583013137 9.432533180167486 0.0002240015790526821 0 0 0
56 1 20.438467784119805 11.004773007085127 1.5721073282195965 0 0 0
57 1 0.0006474310476147491 12.576850691760228 22.009492886820436 0 0 -1
58 1 1.5722662390649857 14.148922622876418 1.5721081349325539 0 0 0
59 1 3.1441898151938155 12.576847974578051 22.009498558626515 0 0 -1
60 1 4.715809454147077 14.149129253813342 1.5721079064328263 0 0 0
61 1 6.287850977471777 12.577071981196308 0.00028523849087120354 0 0 0
62 1 7.8597327837424915 14.149802850749841 1.5721068065319563 0 0 0
63 1 9.432125779738513 12.577560161961994 0.0016376243455868639 0 0 0
64 1 11.004931274604354 14.15005513432407 1.572105799988439 0 0 0
65 1 12.578080040706164 12.577701288878217 0.0021523547312177357 0 0 0
66 1 14.150525677448492 14.150075375866802 1.5721056957861856 0 0 0
67 1 15.722982959085607 12.57736742412192 0.0009853401465629522 0 0 0
68 1 17.294817678828604 14.149480114055095 1.5721063277093106 0 0 0
69 1 18.866706162787594 12.577012785028554 0.00022380129136464645 0 0 0
70 1 20.438368219339946 14.14905135816627 1.5721075648065015 0 0 0
71 1 0.00037117861975171783 15.721056437411741 22.0095408870666 0 0 -1
72 1 1.5718825170551156 17.293212787991976 1.5721087362877575 0 0 0
73 1 3.14382515776403 15.721134733969631 8.776454970782656e-05 0 0 0
74 1 4.715398922484972 17.293729602093887 1.5721084920989659 0 0 0
75 1 6.287425046803731 15.721960804116582 0.0007514748143336268 0 0 0
76 1 7.859888713550653 17.29417688235522 1.5721076730154446 0 0 0
77 1 9.432268523901952 15.722400184311681 0.0010418903457099895 0 0 0
78 1 11.004939841941484 17.29432728508743 1.572106804014416 0 0 0
79 1 12.5776872922625 15.72245388814123 0.001126637460141603 0 0 0
80 1 14.15004206600394 17.29424850714799 1.5721066321959654 0 0 0
81 1 15.722803845709786 15.722238060895133 0.0008209970878618853 0 0 0
82 1 17.294540739338593 17.29388300224951 1.5721072362592532 0 0 0
83 1 18.866525125580104 15.721429367587458 0.00019017254305807866 0 0 0
84 1 20.438072533953218 17.293314071786106 1.5721081134555233 0 0 0
85 1 22.00949325825673 18.865368846262065 6.587989054237455e-05 -1 0 0
86 1 1.5715197230390399 20.43752864956397 1.572109144822402 0 0 0
87 1 3.1433353052076756 18.865637289850405 0.000309851088432433 0 0 0
88 1 4.715441764349297 20.437690933043182 1.572108830549562 0 0 0
89 1 6.287577203633219 18.86600099093345 0.0005034047780007249 0 0 0
90 1 7.8600272149664985 20.437823610156563 1.5721083596959118 0 0 0
91 1 9.432435524702425 18.866204186304532 0.0005831575419830915 0 0 0
92 1 11.004949914788428 20.437866833341538 1.57210763395666 0 0 0
93 1 12.577477495663082 18.86619655115718 0.0005530159106282564 0 0 0
94 1 14.149787514672164 20.437830193354074 1.5721074475201693 0 0 0
95 1 15.722212813711334 18.86601934669452 0.0003784538239629396 0 0 0
96 1 17.29411992146464 20.43768580915734 1.572108054528626 0 0 0
97 1 18.86615147827498 18.86562319636027 0.0001191670390056398 0 0 0
98 1 20.437728841078446 20.43750841590857 1.5721084828863006 0 0 0
99 1 22.009253127581506 22.00954482508398 3.144142744593975 -1 -1 0
100 1 1.571281583707957 1.5719872481957047 4.716025183122281 0 0 0
101 1 3.1433150200281363 22.009544407387562 3.143966062231923 0 -1 0
102 1 4.71522156911668 1.5717271524161789 4.715629767228887 0 0 0
103 1 6.287648736643577 22.009543733261903 3.143821044849933 0 -1 0
104 1 7.8599583659397405 1.5715517159170203 4.715451147143073 0 0 0
105 1 9.43248676930442 22.009543947361962 3.1437829247899334 0 -1 0
106 1 11.005001717921116 1.571522799745684 4.715442530318543 0 0 0
107 1 12.577409726515425 22.00954466945623 3.1438253032390318 0 -1 0
108 1 14.149860561420555 1.5716047787687022 4.715645422912432 0 0 0
109 1 15.721995191459067 22.009545164800485 3.143958219911726 0 -1 0
110 1 17.294102078431436 1.5717997784835183 4.716009820653131 0 0 0
111 1 18.865915497161044 22.00954554493356 3.144121732578476 0 -1 0
112 1 20.43748874295496 1.572043017705533 4.71628001099942 0 0 0
113 1 22.009492755215458 3.1441746146923713 3.14415165273674 -1 0 0
114 1 1.5717123631464691 4.7162954331077325 4.716160492757517 0 0 0
115 1 3.1433340879206577 3.143904050391921 3.143907892653201 0 0 0
116 1 4.715057821880011 4.71545921640692 4.715272564679967 0 0 0
117 1 6.287576295704954 3.1435395402652087 3.143713454200474 0 0 0
118 1 7.859753070698318 4.714886667235065 4.714908594079232 0 0 0
119 1 9.432434826737547 3.1433364833348016 3.143631933023939 0 0 0
120 1 11.00502128449882 4.714781852107918 4.714743338912928 0 0 0
121 1 12.577477381582517 3.1433454863372146 3.1436610139608185 0 0 0
122 1 14.150272778965139 4.714918127848606 4.714984438449451 0 0 0
123 1 15.722213024247907 3.143524571308349 3.14383610632307 0 0 0
124 1 17.294636581750026 4.715489789704762 4.715692959919451 0 0 0
125 1 18.866151478617493 3.14392068606322 3.144096566578823 0 0 0
126 1 20.437966366473223 4.716201084412308 4.716247522089174 0 0 0
127 1 0.000370572918716397 6.288487444104887 3.1442225730868856 0 0 0
128 1 1.572298571733408 7.860674955453556 4.716431809955479 0 0 0
129 1 3.1438238875677698 6.288407320378417 3.1441289796489773 0 0 0
130 1 4.715930162053836 7.86048544496758 4.716130007575472 0 0 0
131 1 6.287424023452386 6.287579605906047 3.143464092708114 0 0 0
132 1 7.859433065086514 7.859105355870115 4.714008309702401 0 0 0
133 1 9.432267757068873 6.287140454229071 3.143171484790339 0 0 0
134 1 11.00503758951017 7.858872016334707 4.712988412778796 0 0 0
135 1 12.577687075794447 6.287088461538286 3.1430854175138476 0 0 0
136 1 14.151244782842257 7.8587345110000815 4.713252055853374 0 0 0
137 1 15.722804007532218 6.287306056564225 3.143391648495228 0 0 0
138 1 17.29496929816383 7.859926223142859 4.715421135549631 0 0 0
139 1 18.866524978544913 6.288116029798724 3.1440241024419775 0 0 0
140 1 20.43835208048418 7.860507403935092 4.716261584847018 0 0 0
141 1 0.000647497323067639 9.432694325528585 3.1442695198628243 0 0 0
142 1 1.5725372215533042 11.004771571263484 4.716500125822417 0 0 0
143 1 3.1441900063091595 9.432694460538013 3.1442643033599413 0 0 0
144 1 4.716305029645727 11.00477028370325 4.716347666277009 0 0 0
145 1 6.287851040556554 9.432468582311726 3.143929097875795 0 0 0
146 1 7.860025149534935 11.004769802515582 4.715012252238459 0 0 0
147 1 9.432125955748246 9.431980297559809 3.142574150700871 0 0 0
148 1 11.00520859825942 11.00477019766396 4.71070846063625 0 0 0
149 1 12.578080722582932 9.431840720343326 3.142057886546412 0 0 0
150 1 14.151237505542376 11.004771350122935 4.712872890841625 0 0 0
151 1 15.72298325750684 9.432177351165103 3.1432257853901993 0 0 0
152 1 17.295019166558617 11.004772530917288 4.715324995539178 0 0 0
153 1 18.86670695985268 9.432533099542516 3.143989244554093 0 0 0
154 1 20.438488374969182 11.004772499184497 4.716257445472407 0 0 0
155 1 0.0006481786834798693 12.576850708284235 3.1442696274832835 0 0 0
156 1 1.5723000034647554 14.148867685144822 4.716432092227739 0 0 0
157 1 3.1441907690464372 12.576848015877236 3.1442644767355477 0 0 0
158 1 4.715931610662103 14.14905514057183 4.716129992906974 0 0 0
159 1 6.28785176565148 12.57707207846444 3.1439290310726427 0 0 0
160 1 7.859434414459261 14.150434377137337 4.714008463917845 0 0 0
161 1 9.432126655237855 12.57756022649233 3.1425741050523093 0 0 0
162 1 11.005038648606902 14.150668565574751 4.712988435323385 0 0 0
163 1 12.578081067671043 12.577701402456217 3.142057933337024 0 0 0
164 1 14.151245500096485 14.150808238422538 4.713252351255029 0 0 0
165 1 15.722983673929885 12.577367421192504 3.1432258692363093 0 0 0
166 1 17.294970068397696 14.14961837539093 4.7154214810407495 0 0 0
167 1 18.86670730185321 12.57701286242476 3.1439894370855836 0 0 0
168 1 20.438353107609657 14.149037234696843 4.716261839809594 0 0 0
169 1 0.00037189842893125527 15.721056665830867 3.1442225278671025 0 0 0
170 1 1.5717144273345243 17.293246916094475 4.716160772697425 0 0 0
171 1 3.1438258056548416 15.721135059654022 3.144129155221327 0 0 0
172 1 4.715059517153357 17.294081266078518 4.715272488721137 0 0 0
173 1 6.287425794587598 15.721960945098354 3.143463992666533 0 0 0
174 1 7.859754968246649 17.294653146801277 4.714908713627448 0 0 0
175 1 9.432269298336566 15.722400231947377 3.1431715400101656 0 0 0
176 1 11.00502278441432 17.2947588868556 4.714743494442027 0 0 0
177 1 12.57768816764424 15.722453790117735 3.1430855975847822 0 0 0
178 1 14.150273652868231 17.29462448013461 4.714984926013572 0 0 0
179 1 15.722804676615745 15.72223805845929 3.143391813746575 0 0 0
180 1 17.294637766774606 17.29405434447785 4.715693502872004 0 0 0
181 1 18.86652598453729 15.721429389366387 3.144024402619748 0 0 0
182 1 20.43796733919019 17.293342861128533 4.7162478550460945 0 0 0
183 1 22.009493878068984 18.865368945270816 3.144151649336775 -1 0 0
184 1 1.5712822816513727 20.43755456382756 4.716025326397818 0 0 0
185 1 3.1433356489748188 18.865637439120825 3.1439080594948723 0 0 0
186 1 4.715222538153009 20.437813181854413 4.71562983500429 0 0 0
187 1 6.287577754315008 18.86600115451394 3.1437134988043565 0 0 0
188 1 7.859959133383417 20.437988045321337 4.715451310239275 0 0 0
189 1 9.432436133131947 18.866204301310177 3.1436320574602363 0 0 0
190 1 11.005002343114135 20.43801798433574 4.715442656654965 0 0 0
191 1 12.577478246803016 18.866196687244752 3.1436611820295277 0 0 0
192 1 14.14986112662753 20.437937771345673 4.715645602687361 0 0 0
193 1 15.722213717378112 18.866019413853365 3.1438362683834242 0 0 0
194 1 17.294102407923674 20.437743853443717 4.716009989309338 0 0 0
195 1 18.866152164623234 18.865623323879582 3.144096965924609 0 0 0
196 1 20.43748940448229 20.43750024971437 4.716280131115482 0 0 0
197 1 22.00890883084925 22.00954443512679 6.288334509238956 -1 -1 0
198 1 1.570905850397434 1.571912939734288 7.860219626620891 0 0 0
199 1 3.1428910328359887 22.009543561513297 6.28776388886967 0 -1 0
200 1 4.714624297530416 1.5712773711575698 7.859406504969358 0 0 0
201 1 6.287391715594521 22.009542893933112 6.287397318105784 0 -1 0
202 1 7.8597455243463 1.5709714519265816 7.859189334500349 0 0 0
203 1 9.432497195283233 22.00954305567654 6.287317479106348 0 -1 0
204 1 11.00517029527641 1.5710571999217458 7.85924183336157 0 0 0
205 1 12.577551251689 22.009543973452818 6.287466897328193 0 -1 0
206 1 14.150017689504951 1.5713509826391185 7.859680992384684 0 0 0
207 1 15.722041806964665 22.009544823543624 6.287914909195895 0 -1 0
208 1 17.293616491362258 1.572017410069683 7.860509890367171 0 0 0
209 1 18.865556161806566 22.00954509640323 6.288434302520757 0 -1 0
210 1 20.437064887729598 1.5721119181253913 7.860591974563268 0 0 0
211 1 22.009013729921197 3.1441385495024057 6.2883052724716615 -1 0 0
212 1 1.5709384827112831 4.7159701322586445 7.8601374135186335 0 0 0
213 1 3.1427937570333717 3.1435815401441807 6.287591064633146 0 0 0
214 1 4.713761877305043 4.714112219250475 7.858415315959893 0 0 0
215 1 6.287161772176003 3.1428749277351793 6.287021671294159 0 0 0
216 1 7.859105494117215 4.712856338415132 7.857941811253729 0 0 0
217 1 9.432415629494146 3.142633036803355 6.286886822391711 0 0 0
218 1 11.005323562379541 4.713113809948506 7.857742632387245 0 0 0
219 1 12.577685368788961 3.1427987209462764 6.28699132787542 0 0 0
220 1 14.150973969496068 4.713627695455199 7.858368990587198 0 0 0
221 1 15.722380868088678 3.143164361026363 6.287563028332021 0 0 0
222 1 17.2937972404065 4.716063223359405 7.860481491450811 0 0 0
223 1 18.865724088318117 3.144052033146225 6.288399727018307 0 0 0
224 1 20.437240728336924 4.7163972466731146 7.860653020516497 0 0 0
225 1 0.0001949930978660054 6.288547899314778 6.288506426432867 0 0 0
226 1 1.5723209019115603 7.860833376165405 7.860810647311755 0 0 0
227 1 3.1436439274017887 6.2883784784818015 6.288174507935886 0 0 0
228 1 4.716218930127798 7.860648232427071 7.860540085815273 0 0 0
229 1 6.286472833246544 6.286269306072018 6.285741637704072 0 0 0
230 1 7.857373257589993 7.8552733040786435 7.854432226075496 0 0 0
231 1 9.432119057994093 6.285637004433147 6.285231085386882 0 0 0
232 1 11.005755627280257 7.855934144284297 7.85254138919731 0 0 0
233 1 12.578330230101779 6.285838594738116 6.284972153599747 0 0 0
234 1 14.154662058384769 7.855090261700414 7.853772093909797 0 0 0
235 1 15.723659152668505 6.286323195935195 6.286235757553461 0 0 0
236 1 17.29521852656246 7.859690037906415 7.859402940484399 0 0 0
237 1 18.866491588038635 6.288034333711114 6.288081645039496 0 0 0
238 1 20.438052377393333 7.860634189800287 7.860639142545251 0 0 0
239 1 0.0006774962030462124 9.432750022006955 6.288613349910285 0 0 0
240 1 1.5729231470311684 11.004770255217462 7.860910758542995 0 0 0
241 1 3.1445643588124055 9.432794306381792 6.2886771092665015 0 0 0
242 1 4.717645181859618 11.004769047140508 7.8609480162519265 0 0 0
243 1 6.288527774438532 9.43261222909912 6.2882128257961085 0 0 0
244 1 7.8626170581776025 11.004768922410157 7.8600127124090395 0 0 0
245 1 9.431580061775339 9.430388877692819 6.282538503429123 0 0 0
246 1 11.006724254462315 11.004769242802194 7.840381413682928 0 0 0
247 1 12.579999693044655 9.430200078431096 6.28009891032021 0 0 0
248 1 14.153423850240292 11.00477048145326 7.853266507729416 0 0 0
249 1 15.723682592450261 9.431786814426236 6.28571091279287 0 0 0
250 1 17.295184035964393 11.004771362586643 7.859171179821123 0 0 0
251 1 18.866723056484005 9.432519999305855 6.28796760512755 0 0 0
252 1 20.438311605626854 11.004771203709662 7.8606121145343595 0 0 0
253 1 0.0006783342382379188 12.576792957420393 6.288613489297856 0 0 0
254 1 1.5723222828657832 14.148707046597785 7.860810808881576 0 0 0
255 1 3.1445649978354497 12.576746184158766 6.2886770837559824 0 0 0
256 1 4.716220392017657 14.148890239790706 7.8605401859199 0 0 0
257 1 6.288528669237922 12.576926663892884 6.288212878457047 0 0 0
258 1 7.857374557290548 14.154264108732784 7.854431726867185 0 0 0
259 1 9.431580628976937 12.579150181616559 6.282538598170144 0 0 0
260 1 11.005756920486371 14.15360462163833 7.852541627933997 0 0 0
261 1 12.580000320117945 12.579340580271742 6.280099115548838 0 0 0
262 1 14.154663201706356 14.154450244525986 7.85377242921819 0 0 0
263 1 15.723683104003305 12.57775612778798 6.285711138919672 0 0 0
264 1 17.29521965778012 14.149852716055317 7.859403400365972 0 0 0
265 1 18.866723573687114 12.577024088925961 6.287967749498377 0 0 0
266 1 20.438053804717562 14.148908419527261 7.860639550691932 0 0 0
267 1 0.00019669923153659892 15.720994626567192 6.288506975052305 0 0 0
268 1 1.5709402448549938 17.293570336564624 7.860137479019356 0 0 0
269 1 3.1436457144199297 15.721161989604077 6.288174510539305 0 0 0
270 1 4.713763998286672 17.295425932445603 7.858415570040751 0 0 0
271 1 6.286474778724906 15.72326953098848 6.2857417546545165 0 0 0
272 1 7.859107217824813 17.296681425269377 7.857941758051851 0 0 0
273 1 9.432120668215438 15.723901920010245 6.285231098098554 0 0 0
274 1 11.005325336316893 17.296424851667233 7.857743023938357 0 0 0
275 1 12.57833161299423 15.723702155049992 6.284972373569422 0 0 0
276 1 14.150975584329263 17.295913279858404 7.858369343588247 0 0 0
277 1 15.72366027081502 15.723219639145942 6.286236423564609 0 0 0
278 1 17.293798638788402 17.293479313935503 7.860482067535617 0 0 0
279 1 18.866492889783135 15.721509507487893 6.28808215013442 0 0 0
280 1 20.437242525178455 17.29314496189441 7.860653454450169 0 0 0
281 1 22.009015190764064 18.865403616677785 6.288305617004326 -1 0 0
282 1 1.5709067178695992 20.437627240278346 7.860219653614576 0 0 0
283 1 3.142795130673466 18.865958664966925 6.287591032068065 0 0 0
284 1 4.714625160964147 20.438260998099928 7.859406527644778 0 0 0
285 1 6.287163450365692 18.86666408598519 6.287021719121557 0 0 0
286 1 7.85974640421852 20.43856625498698 7.8591892192950095 0 0 0
287 1 9.432416993847697 18.866906180254105 6.286886844215694 0 0 0
288 1 11.005171046887524 20.438481722038112 7.859241896646781 0 0 0
289 1 12.57768662136861 18.86674207034971 6.286991515104933 0 0 0
290 1 14.150018433112512 20.438190050868165 7.859681155989196 0 0 0
291 1 15.722381760247773 18.86637833456323 6.28756353968288 0 0 0
292 1 17.293617138704256 20.437525169764978 7.860510260941255 0 0 0
293 1 18.86572514540316 18.86549116524847 6.2884000854977495 0 0 0
294 1 20.4370656251793 20.437430174755118 7.860592237200529 0 0 0
295 1 22.008612427182467 22.009543884382506 9.432600450379912 -1 -1 0
296 1 1.5707227446897936 1.5718769902019722 11.004640724233967 0 0 0
297 1 3.1426111050455043 22.0095426248432 9.43216961338737 0 -1 0
298 1 4.7144424715775095 1.571108483410843 11.004283161630015 0 0 0
299 1 6.286903886417902 22.009541947331474 9.431570844891194 0 -1 0
300 1 7.859349802685048 1.5699346460125418 11.003945798480839 0 0 0
301 1 9.432503593304043 22.0095420238995 9.431587762632095 0 -1 0
302 1 11.005312245191687 1.5704490562103584 11.004085099088586 0 0 0
303 1 12.577709633836973 22.009543056636637 9.431839899666453 0 -1 0
304 1 14.14959459601874 1.5718091432220351 11.00457322991808 0 0 0
305 1 15.721635264074074 22.009544207807572 9.432515242749828 0 -1 0
306 1 17.29325223717115 1.5721510323050307 11.004801623621104 0 0 0
307 1 18.865173479519953 22.00954442802131 9.432726787669976 0 -1 0
308 1 20.43678820833848 1.5721579056409432 11.00480242267644 0 0 0
309 1 22.00862780105505 3.144150148785512 9.432613296688489 -1 0 0
310 1 1.5707060510040842 4.71585320671843 11.004627404454885 0 0 0
311 1 3.1424575623753834 3.1433048785132573 9.432029466381788 0 0 0
312 1 4.713737724734483 4.7135799927700095 11.003889646248915 0 0 0
313 1 6.286180258887919 3.141122702016212 9.430832501770158 0 0 0
314 1 7.857424945092319 4.707936390677452 11.002299597778851 0 0 0
315 1 9.43239729790321 3.1408589753023417 9.430970465189075 0 0 0
316 1 11.005865410077144 4.710369019897541 11.002490774300863 0 0 0
317 1 12.578012706328577 3.141881023682417 9.431204682357231 0 0 0
318 1 14.148931437628404 4.716070104945424 11.004710783726129 0 0 0
319 1 15.72151611623028 3.1440112818112356 9.432586458224552 0 0 0
320 1 17.2928816183156 4.7165597017168235 11.004900448584202 0 0 0
321 1 18.86514076295153 3.1443196721033075 9.432780328428171 0 0 0
322 1 20.43675966560205 4.716501734805322 11.004858067172904 0 0 0
323 1 22.008929129495023 6.288529272985951 9.432741108075426 -1 0 0
324 1 1.571507363501543 7.860536658459586 11.00482933286259 0 0 0
325 1 3.1422029891455683 6.287283981860444 9.43179118305865 0 0 0
326 1 4.713109094506327 7.8577126238387764 11.00361557004729 0 0 0
327 1 6.282730347483061 6.281609416709922 9.427155010975229 0 0 0
328 1 7.845276601466059 7.838058300301701 10.991275050595705 0 0 0
329 1 9.43168832348108 6.280397975451327 9.428029322345964 0 0 0
330 1 11.009195036802495 7.846946900745544 10.9906605291559 0 0 0
331 1 12.580104201660165 6.282290174626483 9.42735689127835 0 0 0
332 1 14.145908248899701 7.862436533092549 11.005849604228562 0 0 0
333 1 15.721235690706253 6.288417712596736 9.432746628062874 0 0 0
334 1 17.291932978084862 7.86108465360628 11.005168523598917 0 0 0
335 1 18.8651203390813 6.2886990204197355 9.432938941052921 0 0 0
336 1 20.436948663577745 7.860849001417345 11.004975167989157 0 0 0
337 1 0.0004918930031044147 9.43286633004529 9.432959102961865 0 0 0
338 1 1.573303653105958 11.004769393151834 11.004893390182978 0 0 0
339 1 3.145519823944656 9.433062886432465 9.433202410241131 0 0 0
340 1 4.721510583577812 11.004768019812982 11.00532183512343 0 0 0
341 1 6.291581439258089 9.433760134016724 9.434592535821414 0 0 0
342 1 7.885013935464469 11.004768581814924 11.013851858620809 0 0 0
343 1 9.428377488601186 9.418620433119456 9.419259452703866 0 0 0
344 1 11.03475967882227 11.004768337305693 10.900392213231413 0 0 0
345 1 12.592028642727936 9.419296126302406 9.410352201553227 0 0 0
346 1 14.152036471671801 11.004769911469158 10.999418561224282 0 0 0
347 1 15.724300417385026 9.431516799911664 9.429848403238653 0 0 0
348 1 17.2926555844512 11.004770538989627 11.004989172729026 0 0 0
349 1 18.865926063671655 9.43272052867091 9.432647620797223 0 0 0
350 1 20.43743057298843 11.004770384947644 11.005024121886112 0 0 0
351 1 0.0004927266657277983 12.57667425195524 9.432959221026154 0 0 0
352 1 1.5715090961529716 14.149001958695248 11.004829524668658 0 0 0
353 1 3.145520486269586 12.576475375041715 9.433202499617021 0 0 0
354 1 4.713110060501278 14.151824375259642 11.003615300111706 0 0 0
355 1 6.291582117656713 12.575776470651448 9.434592292024577 0 0 0
356 1 7.84527737336541 14.171477915713702 10.991274891499396 0 0 0
357 1 9.428378064084848 12.5909166276667 9.419259481545442 0 0 0
358 1 11.009196444591337 14.162590607366251 10.990660060663062 0 0 0
359 1 12.592029464435976 12.59024256237091 9.410352279096541 0 0 0
360 1 14.145909533444707 14.147102517643182 11.005849793872816 0 0 0
361 1 15.724300966599817 12.578024223535373 9.429848499630845 0 0 0
362 1 17.291934626136605 14.148456672763647 11.0051686697956 0 0 0
363 1 18.865926862449488 12.576821459896218 9.43264784498899 0 0 0
364 1 20.436950105776127 14.1486919293883 11.004975266150064 0 0 0
365 1 22.00893086397634 15.721011413769016 9.432741242474446 -1 0 0
366 1 1.570707956155891 17.293685895543423 11.004627588796694 0 0 0
367 1 3.1422051973349663 15.722254189288615 9.43179134311251 0 0 0
368 1 4.713739925055937 17.295956437505662 11.003889295690039 0 0 0
369 1 6.28273140370247 15.727927890685848 9.427154544910758 0 0 0
370 1 7.857426648694521 17.301599826773128 11.002299585095244 0 0 0
371 1 9.431690625187542 15.72913898105144 9.428029244462127 0 0 0
372 1 11.00586740626154 17.299167662454806 11.002490546088023 0 0 0
373 1 12.580105610971959 15.727248508282596 9.427357172442248 0 0 0
374 1 14.148933361760744 17.293469587619565 11.004711068531325 0 0 0
375 1 15.721237650647193 15.72112353036679 9.43274698687625 0 0 0
376 1 17.29288339427801 17.29298165409332 11.004900705288781 0 0 0
377 1 18.86512215230674 15.720842837872773 9.432939381175913 0 0 0
378 1 20.436761819908234 17.29303934344995 11.00485819842928 0 0 0
379 1 22.00862943904584 18.86539040566344 9.432613467466327 -1 0 0
380 1 1.570723907348955 20.437661828445766 11.004640838755224 0 0 0
381 1 3.142459057735714 18.866233565485796 9.432029624259156 0 0 0
382 1 4.714443161578758 20.438428260491428 11.004283183422885 0 0 0
383 1 6.286181902743195 18.8684136820342 9.430832544362055 0 0 0
384 1 7.859350831104538 20.439601056389712 11.003945985496195 0 0 0
385 1 9.432398848965793 18.86867795229669 9.430970589349693 0 0 0
386 1 11.005313084071231 20.439088089892213 11.004085200322391 0 0 0
387 1 12.578014161735288 18.86765784036385 9.431204959723622 0 0 0
388 1 14.149595351389744 20.437730640669272 11.004573374159976 0 0 0
389 1 15.72151746751618 18.865529964472664 9.432586763774918 0 0 0
390 1 17.293253173368182 20.4373905872871 11.004801656305004 0 0 0
391 1 18.865142257057645 18.865222537014287 9.432780648149823 0 0 0
392 1 20.43678893160912 20.43738320669336 11.004802415383713 0 0 0
393 1 22.008511526166153 22.00954367033378 12.576883549401684 -1 -1 0
394 1 1.5707223764351348 1.5718771554113697 14.149126314855371 0 0 0
395 1 3.142530275404237 22.00954211184865 12.576883534437469 0 -1 0
396 1 4.714442075338877 1.5711085483659932 14.149482775946119 0 0 0
397 1 6.286792065156893 22.00954140435798 12.57688238253534 0 -1 0
398 1 7.859349447249551 1.5699346927074844 14.14981764817892 0 0 0
399 1 9.432433625934044 22.009541336445118 12.576881401224378 0 -1 0
400 1 11.005311593893165 1.5704490065347696 14.14967682977895 0 0 0
401 1 12.577603536245705 22.009542584242695 12.576880958143162 0 -1 0
402 1 14.149593895269406 1.571809072648356 14.149188812936142 0 0 0
403 1 15.721450769362663 22.009543975423792 12.576881478588948 0 -1 0
404 1 17.29325152626779 1.5721511659482699 14.148962138316504 0 0 0
405 1 18.865014841626948 22.009544226674926 12.57688264513114 0 -1 0
406 1 20.436787554888483 1.5721580089354215 14.14896371618217 0 0 0
407 1 22.008491372728717 3.1441452279829614 12.576883073009457 -1 0 0
408 1 1.5707055264363412 4.715853346376103 14.149137931736703 0 0 0
409 1 3.142407328922092 3.1432075676994193 12.576883115978687 0 0 0
410 1 4.71373721917392 4.713580207176674 14.149874615389981 0 0 0
411 1 6.286184739473341 3.140737416371091 12.576882018230418 0 0 0
412 1 7.857424388954556 4.707936609632498 14.15146250976866 0 0 0
413 1 9.432225539734844 3.1385677570097497 12.576880917501244 0 0 0
414 1 11.005864828237579 4.710369151978686 14.151269768832822 0 0 0
415 1 12.577424646594475 3.142867187810406 12.576880533922653 0 0 0
416 1 14.14893057887667 4.716070165438885 14.149049562587436 0 0 0
417 1 15.721142215098443 3.1442254211372505 12.576880962430886 0 0 0
418 1 17.292880986203837 4.716559683877432 14.14886137008507 0 0 0
419 1 18.8649025477706 3.144386863359402 12.576882173132756 0 0 0
420 1 20.436758869115327 4.716501859533014 14.148906143095655 0 0 0
421 1 22.00867013396786 6.28850061344736 12.576881865453732 -1 0 0
422 1 1.5715065923955667 7.860536869873952 14.14893406265532 0 0 0
423 1 3.1422376314808367 6.287047824491131 12.576882057959137 0 0 0
424 1 4.713108571114175 7.8577127453245215 14.150146893448378 0 0 0
425 1 6.283976676569168 6.281092390356975 12.576881185054253 0 0 0
426 1 7.8452758254817025 7.838058394817091 14.162485141063534 0 0 0
427 1 9.430701280971425 6.2682085247699595 12.576879985951104 0 0 0
428 1 11.009194465762308 7.846946913444984 14.163097972872727 0 0 0
429 1 12.574873875829313 6.287799825845746 12.576879662771667 0 0 0
430 1 14.145907571167584 7.862436320412272 14.147908556813073 0 0 0
431 1 15.719814499336698 6.288815677718523 12.576879798877819 0 0 0
432 1 17.291932295173407 7.861084730434196 14.148591158717348 0 0 0
433 1 18.86452065847155 6.288797444716715 12.576880907547304 0 0 0
434 1 20.436947851788343 7.8608491081810135 14.148786776573779 0 0 0
435 1 1.0633110754989364e-05 9.432915427496596 12.576881101767254 0 0 0
436 1 1.5733027455895061 11.004769392804175 14.148869167634151 0 0 0
437 1 3.144784321939619 9.432875899827973 12.576881285055903 0 0 0
438 1 4.721510141977702 11.004768026982928 14.148439900695857 0 0 0
439 1 6.28538585121531 9.427212054235946 12.576880645542992 0 0 0