LAMMPS data file via write_data, version 2 Aug 2023, timestep = 35, units = metal

689 atoms
3 atom types

0 22.009546999999998 xlo xhi
0 22.009546999999998 ylo yhi
0 22.009546999999998 zlo zhi

Masses

1 183.84
2 1.008
3 4.0026

Atoms # atomic

1 1 0.0009486143092177192 22.00948916229103 0.00014767116453690669 0 -1 0
2 1 1.5725319910451854 1.5715928607265068 1.5719279209557138 0 0 0
3 1 3.1442672033312564 22.00953622584191 0.0003264425335980475 0 -1 0
4 1 4.716436548749613 1.571521207750963 1.5718432432536047 0 0 0
5 1 6.288700947955472 4.301691333913251e-06 0.0003055381368482369 0 0 0
6 1 7.861199051879456 1.5714322551337971 1.571749475976867 0 0 0
7 1 9.43368256531397 22.009504696768524 0.0002633848167214211 0 -1 0
8 1 11.006322187736284 1.571313461459171 1.5717151419835942 0 0 0
9 1 12.578786641529012 22.009422460203634 0.00021244468694623191 0 -1 0
10 1 14.151387306316721 1.5712471678485989 1.5717310235467123 0 0 0
11 1 15.723603583216418 22.00939307741652 0.00017286502047651053 0 -1 0
12 1 17.295952473886633 1.571339128460893 1.5718067769958668 0 0 0
13 1 18.86766088547786 22.009435625831333 0.00017617946468311924 0 -1 0
14 1 20.439377564632178 1.5716234051913707 1.5719271129048897 0 0 0
15 1 0.0012401071949030328 3.1434630737918825 0.0003913699162605309 0 0 0
16 1 1.572872317242736 4.715707610528779 1.572033011143418 0 0 0
17 1 3.143928785087328 3.1429269717410477 0.000795043421624173 0 0 0
18 1 4.715979921739738 4.714896303878312 1.5718215737599308 0 0 0
19 1 6.288495280526504 3.1427300348781126 0.0008053057108433029 0 0 0
20 1 7.861040582989251 4.714624619116869 1.5717754393008552 0 0 0
21 1 9.433710117451767 3.142555848419217 0.0007452544708685887 0 0 0
22 1 11.006541820820452 4.7144072983416 1.5717261887763507 0 0 0
23 1 12.579099920817102 3.1424232724734 0.0007340124827513928 0 0 0
24 1 14.152080187348961 4.71433077109295 1.5717382515467306 0 0 0
25 1 15.724235843628652 3.1424407198145543 0.0007355396607982965 0 0 0
26 1 17.296836468617514 4.714670697161746 1.5719445980274902 0 0 0
27 1 18.868266782368863 3.1429179205025966 0.0005493415908736588 0 0 0
28 1 20.43982747018861 4.7155646127716215 1.5720017781131224 0 0 0
29 1 0.001680223959779988 6.2878234402798805 0.00039266344266640507 0 0 0
30 1 1.573227982659939 7.860243007266728 1.5720172887429773 0 0 0
31 1 3.1443403494538136 6.287657348501383 0.0007569416212204659 0 0 0
32 1 4.716422919752624 7.8600975443727235 1.5719160905190914 0 0 0
33 1 6.287957840820791 6.286651510888449 0.0016553237787673759 0 0 0
34 1 7.860940667819872 7.859533325990833 1.571241651996033 0 0 0
35 1 9.43364180563855 6.2862662781968375 0.0016029247098658245 0 0 0
36 1 11.006806395923768 7.859134641090366 1.571214182323652 0 0 0
37 1 12.579713853922575 6.286109782037789 0.0017105090768660064 0 0 0
38 1 14.152643478129699 7.85919384522572 1.571647247715016 0 0 0
39 1 15.725378376075666 6.286184423223761 0.0017489464495700471 0 0 0
40 1 17.297237681534856 7.859515757814698 1.5718331963709213 0 0 0
41 1 18.868742652121995 6.287290805642439 0.0006594550818128271 0 0 0
42 1 20.44017089619145 7.860062147424413 1.5719640795758998 0 0 0
43 1 0.0019004406828063763 9.432462997161595 0.00032450837279602305 0 0 0
44 1 1.5732806214196287 11.004902230703784 1.5719114375080858 0 0 0
45 1 3.144572832458588 9.432493999876552 0.0005878589695434723 0 0 0
46 1 4.716433637414027 11.00504752261405 1.571761843537509 0 0 0
47 1 6.288352752903505 9.432431236519426 0.0010217936516046338 0 0 0
48 1 7.860865264999178 11.005300836145153 1.571004617815584 0 0 0
49 1 9.43388285074717 9.432281266180576 0.0012613029754286894 0 0 0
50 1 11.006894908449503 11.005274433905669 1.5706881239677601 0 0 0
51 1 12.579929129800238 9.432054852563988 0.002094965557440085 0 0 0
52 1 14.153037921124122 11.004969830645784 1.571254277354764 0 0 0
53 1 15.725674250662799 9.431848784767215 0.0015019516232711832 0 0 0
54 1 17.29737893825679 11.004841785234586 1.571619700599076 0 0 0
55 1 18.868958886760264 9.432232620456977 0.0005824609969727446 0 0 0
56 1 20.440247784636874 11.004830853340458 1.5718425506078084 0 0 0
57 1 0.001820177221185799 12.577198135446597 0.0002111618415739213 0 0 0
58 1 1.5730600030750561 14.149578667801189 1.5717887111516193 0 0 0
59 1 3.1444809050424065 12.577351663677547 0.00045655820647461727 0 0 0
60 1 4.716184748984996 14.150045437579392 1.571530105860853 0 0 0
61 1 6.288238610458019 12.57770272900516 0.0008098017625675674 0 0 0
62 1 7.86092329765921 14.150525648483939 1.5711454907848308 0 0 0
63 1 9.4338019671619 12.577803860792054 0.001025549457590545 0 0 0
64 1 11.006511554292118 14.150893446539506 1.570911396735372 0 0 0
65 1 12.57991563561437 12.577944186669388 0.0016944042379069921 0 0 0
66 1 14.152672871835813 14.150834434760407 1.5709786938870387 0 0 0
67 1 15.72563172903884 12.57784955729418 0.0012378854485485943 0 0 0
68 1 17.297203901364007 14.150200099768727 1.5714480202206587 0 0 0
69 1 18.868889379819684 12.577360279631446 0.00041745404843123547 0 0 0
70 1 20.44006500521497 14.149623075168524 1.5717207315529151 0 0 0
71 1 0.001519948887483325 15.721821123416497 0.00012000757528688416 0 0 0
72 1 1.5727224927353805 17.2941002970585 1.571728828917935 0 0 0
73 1 3.1441783276917192 15.722156236152944 0.0004193649265534882 0 0 0
74 1 4.715926886167048 17.29491033107104 1.571510663909149 0 0 0
75 1 6.287962259151865 15.723087611202903 0.001180977765809807 0 0 0
76 1 7.860849815894264 17.29527778762451 1.5713034520498539 0 0 0
77 1 9.433470710215753 15.72345398542717 0.0009788290981899016 0 0 0
78 1 11.00634134789226 17.295389366286745 1.5711964664178906 0 0 0
79 1 12.579436305666066 15.723465372847071 0.0010322302854229386 0 0 0
80 1 14.15188094864884 17.295308037625183 1.5712426938853365 0 0 0
81 1 15.725236739297914 15.72342698223787 0.001103869333195821 0 0 0
82 1 17.296768867502454 17.295013847180446 1.5714374012398418 0 0 0
83 1 18.868588503698575 15.722275408029812 0.0002809664469326551 0 0 0
84 1 20.43970823924288 17.29411866946858 1.5716944142155773 0 0 0
85 1 0.0011467031607045642 18.86607057637035 0.00013711510631772236 0 0 0
86 1 1.5725073357751411 20.43806335318136 1.5717908751086598 0 0 0
87 1 3.143927020334538 18.86663222885129 0.00047945367993491243 0 0 0
88 1 4.716387258584581 20.438259130932064 1.571659006205531 0 0 0
89 1 6.288424449065363 18.866876383574365 0.00042037104963626315 0 0 0
90 1 7.861123609462857 20.438368116810395 1.5715436055109024 0 0 0
91 1 9.433583555941535 18.866966694048976 0.00031919193683161703 0 0 0
92 1 11.00624753621846 20.4383413190396 1.5714962669972465 0 0 0
93 1 12.578930607907234 18.86693349684295 0.00026836943516830164 0 0 0
94 1 14.151319335548902 20.438264285319207 1.5715128696726104 0 0 0
95 1 15.724037282920506 18.866870908843953 0.0002958106100574094 0 0 0
96 1 17.29588487590049 20.43816361286474 1.571626823677345 0 0 0
97 1 18.868115698577967 18.86650049500259 0.00019386199990353183 0 0 0
98 1 20.439330628488452 20.437944461482616 1.5717861641092337 0 0 0
99 1 0.000991292004142731 6.328203379982559e-05 3.1436277501380947 0 0 0
100 1 1.572175996148169 1.57155800625435 4.715202362914291 0 0 0
101 1 3.144247785160985 0.00013728642675917552 3.1433235579386767 0 0 0
102 1 4.715927279106337 1.5712241778046567 4.714634255601546 0 0 0
103 1 6.288678184958284 0.0002051675712879718 3.143111378295314 0 0 0
104 1 7.861009659297019 1.5711944329150245 4.714459834311171 0 0 0
105 1 9.433700886254357 0.00018791379277967212 3.143016695534441 0 0 0
106 1 11.006378107743144 1.5711335581220482 4.714459715189988 0 0 0
107 1 12.578849005024669 0.00010439146729409692 3.1430454548514293 0 0 0
108 1 14.151618909817177 1.5710583697826996 4.714596639552106 0 0 0
109 1 15.723703002300965 4.958763040614693e-05 3.1431805421085395 0 0 0
110 1 17.296310023064965 1.571088169048519 4.714877582526299 0 0 0
111 1 18.867741263387806 3.7854668308260275e-05 3.1434187172005994 0 0 0
112 1 20.43918572839021 1.5716205162088028 4.715534209364214 0 0 0
113 1 0.001287407012001152 3.143612919133692 3.143625515009481 0 0 0
114 1 1.572451541167417 4.715507583340643 4.7151331551152795 0 0 0
115 1 3.1439339892264013 3.143065508924538 3.14306202122566 0 0 0
116 1 4.714622144360321 4.713661000620202 4.71292332953236 0 0 0
117 1 6.288518484053849 3.1428562775098645 3.1428884833716144 0 0 0
118 1 7.860641925219863 4.7136547014078936 4.713075060562085 0 0 0
119 1 9.433754299800515 3.1427171247166963 3.1427991339657266 0 0 0
120 1 11.00672363406125 4.713522969578422 4.71300319832061 0 0 0
121 1 12.579145655523122 3.142574235351826 3.142805360410623 0 0 0
122 1 14.152910467824318 4.713317527050316 4.712862774967444 0 0 0
123 1 15.724314469625433 3.1425890495698097 3.142908636465696 0 0 0
124 1 17.29780188598627 4.713808694618222 4.71383071655893 0 0 0
125 1 18.868303524909397 3.143077332557823 3.1433703884735587 0 0 0
126 1 20.439956927978592 4.715380954262224 4.715309780792608 0 0 0
127 1 0.0017833270918200055 6.28796254607762 3.143685107592028 0 0 0
128 1 1.573099797873464 7.8602768329230726 4.715319016433704 0 0 0
129 1 3.14445588857726 6.287854076387056 3.14334144219542 0 0 0
130 1 4.715892439202735 7.860048009500212 4.714165198189637 0 0 0
131 1 6.287792952835053 6.286567867514408 3.1415567444055434 0 0 0
132 1 7.859316021209296 7.857812453563107 4.709230355333444 0 0 0
133 1 9.433751050545899 6.286423879935215 3.1415916440355294 0 0 0
134 1 11.007616431347198 7.857641508884281 4.709277341270744 0 0 0
135 1 12.57991867413506 6.2861337493365 3.1414185168206337 0 0 0
136 1 14.154397573463148 7.857933301164755 4.710146428904446 0 0 0
137 1 15.725430088095795 6.286336688384989 3.142016306160982 0 0 0
138 1 17.29819606173028 7.859080134924718 4.713613827564258 0 0 0
139 1 18.868803844015744 6.287396644439378 3.1432752558189745 0 0 0
140 1 20.440420703117272 7.860004016650111 4.715202999937557 0 0 0
141 1 0.0020292323074198523 9.432545665280564 3.1436011496680822 0 0 0
142 1 1.573225169663777 11.004963487359657 4.715225920684364 0 0 0
143 1 3.1447409526066994 9.432615599962165 3.143353147178466 0 0 0
144 1 4.715956302628465 11.005190655244178 4.71409875764107 0 0 0
145 1 6.288406258248959 9.43260795534983 3.142252268905439 0 0 0
146 1 7.859594356123683 11.0064355909823 4.710855684965727 0 0 0
147 1 9.433880450565393 9.432498016475096 3.1394803036727716 0 0 0
148 1 11.00783545989074 11.00638714252663 4.7092952642565695 0 0 0
149 1 12.580060298616083 9.432220679507253 3.1404424383469403 0 0 0
150 1 14.155081183244107 11.005179911634874 4.70951236349388 0 0 0
151 1 15.725822480709967 9.431919325298649 3.1416881107288717 0 0 0
152 1 17.298407502758845 11.00491202291287 4.713288363921487 0 0 0
153 1 18.869075734269696 9.43229215956572 3.1431070665915475 0 0 0
154 1 20.440544603514486 11.004872656442638 4.715037961961024 0 0 0
155 1 0.0019442256956588508 12.577243451626034 3.1434807198756163 0 0 0
156 1 1.5728323568045752 14.149735566463443 4.715069645290013 0 0 0
157 1 3.144569448107638 12.577423085374052 3.143196889754543 0 0 0
158 1 4.715299274589376 14.150638639299077 4.713501776040961 0 0 0
159 1 6.2880092475477145 12.578117225293893 3.141819257505901 0 0 0
160 1 7.859733845814666 14.152292989382106 4.710111842961704 0 0 0
161 1 9.43378244384478 12.578211314977333 3.1406937516197226 0 0 0
162 1 11.006663058473684 14.152858909720251 4.709390956585525 0 0 0
163 1 12.580293167612364 12.578471262792155 3.1397018683786424 0 0 0
164 1 14.154832843128238 14.15293929471985 4.708887879360596 0 0 0
165 1 15.725903654052683 12.578013601587264 3.1413715169740337 0 0 0
166 1 17.298370432983873 14.150870728776235 4.713148672334387 0 0 0
167 1 18.869065818086494 12.577424088996969 3.142938407712173 0 0 0
168 1 20.440353173109237 14.149796204105762 4.71496130748229 0 0 0
169 1 0.0016135006587870465 15.721876233251846 3.14339803345517 0 0 0
170 1 1.572270016801859 17.294456700067027 4.714880087078824 0 0 0
171 1 3.1441724776277002 15.7222554673533 3.1429455011301206 0 0 0
172 1 4.714471838012925 17.296381696846478 4.712742264052165 0 0 0
173 1 6.287792857785643 15.723436568549676 3.141457512047655 0 0 0
174 1 7.860203695490887 17.296716501046163 4.7125602320495 0 0 0
175 1 9.433416410098943 15.723892607375301 3.141139178945576 0 0 0
176 1 11.006492970607075 17.29678245490622 4.712400509852521 0 0 0
177 1 12.579603319945301 15.723900154124163 3.140981576586363 0 0 0
178 1 14.152800724438643 17.296760944826755 4.712443517865516 0 0 0
179 1 15.72555141737255 15.723740015309819 3.141272202168106 0 0 0
180 1 17.297960222551538 17.29621192489798 4.713298708838007 0 0 0
181 1 18.868789747578315 15.72239420504297 3.1428905720120395 0 0 0
182 1 20.439887265545423 17.294448269552532 4.715039625547202 0 0 0
183 1 0.0012082115665920155 18.866157545577174 3.1434222398986726 0 0 0
184 1 1.5721305837670312 20.43823895332984 4.715116667764601 0 0 0
185 1 3.143851550610851 18.866809925737815 3.1428459655075827 0 0 0
186 1 4.7158429842439205 20.438722323284587 4.7145054680209215 0 0 0
187 1 6.288327108148278 18.867164629170784 3.142557917714988 0 0 0
188 1 7.860878952566599 20.43887079828511 4.714285428539778 0 0 0
189 1 9.433572633903868 18.867307913393248 3.1424200828120075 0 0 0
190 1 11.006298548552556 20.438829735821848 4.714244176478314 0 0 0
191 1 12.579037669313143 18.86726986141106 3.1424136007600367 0 0 0
192 1 14.151590454859624 20.438758569957027 4.714416841406753 0 0 0
193 1 15.724230378207293 18.86715088796868 3.1425757725656296 0 0 0
194 1 17.296285879670403 20.438600430789997 4.714745400664873 0 0 0
195 1 18.86827949515408 18.866662873774846 3.143077726001782 0 0 0
196 1 20.43914240718977 20.438071255771288 4.715453573366136 0 0 0
197 1 0.0006597190486997646 6.533631738077441e-05 6.287632455787019 0 0 0
198 1 1.571819936438645 1.5714286759418912 7.8594913534889335 0 0 0
199 1 3.143623082069351 0.00012794355779415707 6.286899913754453 0 0 0
200 1 4.715124428416669 1.570415998327654 7.858573496417713 0 0 0
201 1 6.288119024493688 0.00014329071085051877 6.28642108666585 0 0 0
202 1 7.860383351075959 1.5698844037813229 7.8581866912331195 0 0 0
203 1 9.433560405345144 0.00018004776350579433 6.286295886589621 0 0 0
204 1 11.006340132190397 1.5700499957786986 7.858318893907477 0 0 0
205 1 12.57900597318152 0.00010975155241234434 6.286437455438246 0 0 0
206 1 14.152086091783708 1.5698166207225135 7.858534696632173 0 0 0
207 1 15.724073754998514 22.00952447860952 6.2867641570294595 0 -1 0
208 1 17.295866644451994 1.5711307900498404 7.859587831199049 0 0 0
209 1 18.867465347519985 3.0060994726517814e-05 6.287579066350443 0 0 0
210 1 20.438753005445914 1.5716092315973464 7.859870454167923 0 0 0
211 1 0.0007090333415529867 3.1433735896991464 6.287387787136151 0 0 0
212 1 1.5711374995011393 4.714770932102521 7.858898330651189 0 0 0
213 1 3.142829277399698 3.1422377725164305 6.286074538370592 0 0 0
214 1 4.711569536041929 4.710778730281661 7.855138833647768 0 0 0
215 1 6.28738215172651 3.1411645635116088 6.285361139393986 0 0 0
216 1 7.858528623426426 4.7090901111903785 7.855128360620756 0 0 0
217 1 9.4335263807766 3.141405703331433 6.285346021974632 0 0 0
218 1 11.006783381238089 4.710173157241562 7.8555512667404965 0 0 0
219 1 12.5795193870259 3.141326275314187 6.2854792711591925 0 0 0
220 1 14.156259403265516 4.70841072385295 7.854311479884778 0 0 0
221 1 15.725492426954142 3.140982604708979 6.285545328639809 0 0 0
222 1 17.29781758541157 4.713664483256419 7.858509882108627 0 0 0
223 1 18.868163532440153 3.142913228934742 6.287227423073535 0 0 0
224 1 20.439344080789876 4.715284307643825 7.859620621451629 0 0 0
225 1 0.001564231837474468 6.287863088489621 6.287442217087162 0 0 0
226 1 1.572517120108664 7.860404543955926 7.859587344393983 0 0 0
227 1 3.143118407876012 6.287259096582542 6.286322366956805 0 0 0
228 1 4.713334836213243 7.8594304537885025 7.857543127642291 0 0 0
229 1 6.283342038873736 6.282036055400574 6.279889002101994 0 0 0
230 1 7.847491712687942 7.844555803080118 7.840494444478689 0 0 0
231 1 9.433431159499872 6.2837766150693675 6.281519487351559 0 0 0
232 1 11.010687755425058 7.8518003623569825 7.845444429732325 0 0 0
233 1 12.581820437213862 6.283162242626232 6.280713567847388 0 0 0
234 1 14.166834828951192 7.846823043340041 7.843653465296823 0 0 0
235 1 15.729315105457996 6.282652152149978 6.281875508485738 0 0 0
236 1 17.30087425053104 7.85793799659565 7.856989857864136 0 0 0
237 1 18.869726112945216 6.286784601763014 6.286490888479356 0 0 0
238 1 20.440571949799715 7.860010038572192 7.859501613827132 0 0 0
239 1 0.002052329314734363 9.432535971446288 6.2873139212590035 0 0 0
240 1 1.5728119644865848 11.004957728962795 7.859304385988839 0 0 0
241 1 3.1441546961198776 9.432601809363193 6.286663026812224 0 0 0
242 1 4.7143395588873425 11.005257336310148 7.857359787896352 0 0 0
243 1 6.287418327528248 9.432807893314813 6.284283287067841 0 0 0
244 1 7.855991133629894 11.011258085746514 7.851747700763697 0 0 0
245 1 9.432721047206657 9.431351792621076 6.269929033499411 0 0 0
246 1 11.011352714017002 11.00952903121392 7.84783481998089 0 0 0
247 1 12.583054537516814 9.430776644807379 6.275760759500639 0 0 0
248 1 14.163579355041815 11.005764227584407 7.845248974002861 0 0 0
249 1 15.728895832228286 9.430927511349315 6.282136022652835 0 0 0
250 1 17.300901176691877 11.00490154538459 7.856218846191919 0 0 0
251 1 18.870066523107976 9.43208873604119 6.28620919981562 0 0 0
252 1 20.440835234899147 11.004868952269076 7.859188380125718 0 0 0
253 1 0.0019296210111939224 12.577314292634982 6.287210240111231 0 0 0
254 1 1.5721062286945346 14.14970112313158 7.859353192625435 0 0 0
255 1 3.1437573505150413 12.577640797655855 6.28650808906442 0 0 0
256 1 4.712477661563607 14.151694237122975 7.856808271948186 0 0 0
257 1 6.285766855066086 12.579463921900848 6.283130765517447 0 0 0
258 1 7.848762674102617 14.164799749484377 7.8418112417751455 0 0 0
259 1 9.432641342194453 12.580889863134797 6.2785784567601635 0 0 0
260 1 11.0074011103129 14.160779378360498 7.843826308629909 0 0 0
261 1 12.584193561018179 12.581859522761295 6.273504931681954 0 0 0
262 1 14.168402866461614 14.166386271131817 7.841039726221928 0 0 0
263 1 15.729257483879229 12.579423549248332 6.281608230080235 0 0 0
264 1 17.301115430683595 14.152042487053881 7.856606311494243 0 0 0
265 1 18.870106512222662 12.577683796387486 6.286035296137132 0 0 0
266 1 20.440465872612815 14.149771522785946 7.859327931158568 0 0 0
267 1 0.001365042930693272 15.72205199807873 6.287202551447719 0 0 0
268 1 1.5710019328995048 17.29502619582612 7.858808713724046 0 0 0
269 1 3.142726365565174 15.723007100458009 6.285947326243448 0 0 0
270 1 4.711546625416182 17.29908957454816 7.855170658122112 0 0 0
271 1 6.28339642967224 15.72807601434197 6.280072080752822 0 0 0
272 1 7.858206055674021 17.301009801821404 7.854804511613067 0 0 0
273 1 9.432451728253053 15.727707424531474 6.280805365181322 0 0 0
274 1 11.006818045693118 17.30033115496855 7.854551992540015 0 0 0
275 1 12.581390795523484 15.727609909475937 6.280305394075028 0 0 0
276 1 14.15563773752189 17.30126074908516 7.85443395445366 0 0 0
277 1 15.729957106446802 15.728087680011715 6.280785385750894 0 0 0
278 1 17.297654023693816 17.295996478476333 7.858334275342054 0 0 0
279 1 18.869790247494386 15.723080764372067 6.286169418335977 0 0 0
280 1 20.439193370563842 17.294368314315932 7.859494191255577 0 0 0
281 1 0.0006148342163857855 18.86637821689939 6.287285282316281 0 0 0
282 1 1.57177240231161 20.438230139869482 7.859465809706414 0 0 0
283 1 3.142726335781654 18.867643624229174 6.285976405679871 0 0 0
284 1 4.715093716278805 20.43927816487259 7.858539039118704 0 0 0
285 1 6.287162625896315 18.86884067164361 6.285132248663939 0 0 0
286 1 7.860376609550003 20.439651321742446 7.858172032591348 0 0 0
287 1 9.43327141760233 18.86884097646801 6.285007250067319 0 0 0
288 1 11.00629526234429 20.439498599463143 7.858123494357194 0 0 0
289 1 12.579482171883075 18.868747125970486 6.285089416695471 0 0 0
290 1 14.151833707310098 20.43930843655735 7.858601721674933 0 0 0
291 1 15.725381954893258 18.868755005386184 6.2853623001377334 0 0 0
292 1 17.29579047596365 20.438341796529553 7.85951707295567 0 0 0
293 1 18.868073247893264 18.86676455165025 6.287088017032776 0 0 0
294 1 20.43870118038819 20.437950723900897 7.859823998479263 0 0 0
295 1 0.0003460932256285926 22.009509753386368 9.432052654730162 0 -1 0
296 1 1.5715772293369694 1.5712491078491326 11.00425421135487 0 0 0
297 1 3.14333529730717 22.009519410217706 9.431636150310217 0 -1 0
298 1 4.714830632929276 1.5701479912500875 11.003949006700543 0 0 0
299 1 6.287819209519211 22.00944700362362 9.4313759235159 0 -1 0
300 1 7.860412756634225 1.5693272028613496 11.004217786759522 0 0 0
301 1 9.433296226998243 22.00913505033722 9.431125215056035 0 -1 0
302 1 11.005875811121085 1.5683564317727865 11.004318294449007 0 0 0
303 1 12.578809551406827 22.00896884119811 9.431471593054491 0 -1 0
304 1 14.151422152196883 1.5701011520804318 11.004333993914647 0 0 0
305 1 15.723549931403435 22.009317786925767 9.43188919298725 0 -1 0
306 1 17.295517164538282 1.5710283002299517 11.004335391804995 0 0 0
307 1 18.867064778369524 22.009443027474283 9.432097104099224 0 -1 0
308 1 20.438471187021953 1.57148220255872 11.004389491082717 0 0 0
309 1 0.0003157545208795676 3.1432255686427957 9.431934187328455 0 0 0
310 1 1.5708403068331964 4.714458941849681 11.00404199092847 0 0 0
311 1 3.1425953092233763 3.142020333525618 9.43120318709707 0 0 0
312 1 4.7121167603576355 4.711003260077375 11.003031702991185 0 0 0
313 1 6.286299722588159 3.139028647742154 9.430158179268648 0 0 0
314 1 7.8579186375684245 4.705745899635893 11.003026359734474 0 0 0
315 1 9.432652743308413 3.138209577141754 9.429538372991376 0 0 0
316 1 11.006215595474977 4.700889853842192 11.0033729062829 0 0 0
317 1 12.580224587920176 3.138123593764881 9.429960659653492 0 0 0
318 1 14.152780270109094 4.711273254148934 11.004179108607929 0 0 0
319 1 15.724442888650627 3.141653349404055 9.43159740622131 0 0 0
320 1 17.29665232714347 4.714016469478233 11.00416854022889 0 0 0
321 1 18.867522219014667 3.143031321739069 9.432013035138862 0 0 0
322 1 20.438835730073812 4.7151144713256326 11.004305195381631 0 0 0
323 1 0.0005024821858462717 6.287579655606686 9.431885333882315 0 0 0
324 1 1.5709883559807878 7.859879002561408 11.004278016913766 0 0 0
325 1 3.140218244678157 6.285538877951663 9.430149266897143 0 0 0
326 1 4.706951703717036 7.855990162730604 11.002314302082912 0 0 0
327 1 6.274526743682295 6.273389766566472 9.419621614988026 0 0 0
328 1 7.81807806290352 7.820124447886873 10.972145763761326 0 0 0
329 1 9.429997347803328 6.274805344530983 9.42334357529188 0 0 0
330 1 11.043946062714976 7.798136907705095 10.97771949111775 0 0 0
331 1 12.590273308497782 6.270718781291552 9.41822795221894 0 0 0
332 1 14.160840998629604 7.851767964249939 11.001147733669832 0 0 0
333 1 15.728664295006881 6.28360271594383 9.429365598817066 0 0 0
334 1 17.298512446506837 7.85867976810743 11.004431186965926 0 0 0
335 1 18.86886850205954 6.28706456734943 9.431790076649335 0 0 0
336 1 20.43952946889395 7.85999299645208 11.004454159450198 0 0 0
337 1 0.0017940545289312228 9.432751628982802 9.432094809198391 0 0 0
338 1 1.573526667138596 11.004919303189771 11.004489461272488 0 0 0
339 1 3.144030398232417 9.433398556338616 9.431866933904317 0 0 0
340 1 4.720248276072466 11.005495106590653 11.005771556363735 0 0 0
341 1 6.285210573180075 9.434686111495457 9.430632889008171 0 0 0
342 1 7.87730495326849 11.012013879008533 11.009142513178052 0 0 0
343 1 9.39070761564399 9.401620011591458 9.360426875058263 0 0 0
344 1 11.058302373743805 11.055903993751883 10.702163899506846 0 0 0
345 1 12.625055098409344 9.397905209288053 9.390942312661888 0 0 0
346 1 14.152219098562353 11.003532984808455 10.993371451411665 0 0 0
347 1 15.734474178044387 9.430164986896523 9.427373243840968 0 0 0
348 1 17.296990272262107 11.004857912588795 11.00389561059046 0 0 0
349 1 18.87014447630883 9.432365941862285 9.431568426287868 0 0 0
350 1 20.43980592782699 11.004849902803082 11.004417456695338 0 0 0
351 1 0.0015916449422535685 12.57706026623703 9.432024557481581 0 0 0
352 1 1.5708117919828444 14.149968502297543 11.004232574174555 0 0 0
353 1 3.143246545061493 12.577011959401275 9.431704419830561 0 0 0
354 1 4.7073133679784345 14.15429621886105 11.00233688278354 0 0 0
355 1 6.281355897293724 12.578551418417144 9.428788736206043 0 0 0
356 1 7.822619673956485 14.1874386916511 10.972034217050217 0 0 0
357 1 9.400577140766753 12.620263279007451 9.404721435249462 0 0 0
358 1 11.023489034707463 14.172641973078077 10.972125787028107 0 0 0
359 1 12.628021707562892 12.622503024320578 9.38343901280764 0 0 0
360 1 14.160564182982693 14.157807911444134 11.000782721121984 0 0 0
361 1 15.734607441194505 12.579843865422681 9.426797927069494 0 0 0
362 1 17.29786062672735 14.150499387598169 11.004316343215457 0 0 0
363 1 18.870086391834292 12.577316331281107 9.431404183117206 0 0 0
364 1 20.43919062982791 14.149523994046477 11.004378455020532 0 0 0
365 1 0.0003067109816453653 15.722103488468592 9.431798032080172 0 0 0
366 1 1.5708083843578249 17.295015841891328 11.00398341596454 0 0 0
367 1 3.140198621376066 15.724320163086515 9.430087946128383 0 0 0
368 1 4.712386933184496 17.298215357318053 11.003002922076174 0 0 0
369 1 6.275373558048441 15.735997746087948 9.419866488896231 0 0 0
370 1 7.85777517173292 17.302987472330692 11.00273478543407 0 0 0
371 1 9.430696974473983 15.737387597727208 9.42272203450822 0 0 0
372 1 11.005429849584635 17.299498480673456 11.00262041561058 0 0 0
373 1 12.587516445679602 15.738525035319256 9.420492709372494 0 0 0
374 1 14.152530953021513 17.29735647593408 11.003742924113018 0 0 0
375 1 15.728268998257603 15.726071879087526 9.429114215723262 0 0 0
376 1 17.29632367430799 17.295064523542383 11.004002113439807 0 0 0
377 1 18.868620050894265 15.722445330032901 9.431678447191086 0 0 0
378 1 20.4386300031081 17.294249268153052 11.0042115718005 0 0 0
379 1 0.00022029752382156695 18.866303825494224 9.431878061973588 0 0 0
380 1 1.5715436833239242 20.43812406209732 11.004223296128462 0 0 0
381 1 3.1425599029423728 18.867541185347076 9.43118859432313 0 0 0
382 1 4.714855307573481 20.439010051606818 11.00391005160438 0 0 0
383 1 6.286313018964416 18.870376155168653 9.430054523267641 0 0 0
384 1 7.860380087721728 20.439368849998317 11.004109697756158 0 0 0
385 1 9.433055186230915 18.870615073269168 9.429724057074418 0 0 0
386 1 11.005766206856485 20.438446821399108 11.004165457660553 0 0 0
387 1 12.579291080569773 18.869972804985785 9.430380265251893 0 0 0
388 1 14.151252325975122 20.438322698114984 11.004203602450994 0 0 0
389 1 15.724227577826923 18.867592479244724 9.431436624730726 0 0 0
390 1 17.295394557789557 20.43796443359222 11.004266094728434 0 0 0
391 1 18.867375672148604 18.866348398895294 9.431915877265718 0 0 0
392 1 20.438404589739147 20.437814286811157 11.004344757868244 0 0 0
393 1 0.00019836893524768565 22.009395335735693 12.576674449421887 0 -1 0
394 1 1.5715144657803417 1.5711223738376694 14.149191830854535 0 0 0
395 1 3.1431757127102364 22.009338194971974 12.576722179191957 0 -1 0
396 1 4.714725249599759 1.5699629141101776 14.149641191889224 0 0 0
397 1 6.2874516279974175 22.0091147804406 12.576771299518953 0 -1 0
398 1 7.860137846522579 1.5689366832496985 14.149737449615817 0 0 0
399 1 9.433141735447066 22.00857070256176 12.5769266955785 0 -1 0
400 1 11.005801396894432 1.5696806238183627 14.149464552795763 0 0 0
401 1 12.578688016021344 22.008490873737593 12.576893448851779 0 -1 0
402 1 14.151664611997534 1.5695835318221862 14.149611478834645 0 0 0
403 1 15.723415208606568 22.009020271500113 12.576683805679501 0 -1 0
404 1 17.295571491201834 1.5708424482159768 14.14909449216768 0 0 0
405 1 18.866905663532712 22.009281535889752 12.57665154464373 0 -1 0
406 1 20.438463832503373 1.5713579953285073 14.149001219124413 0 0 0
407 1 0.00014281807573914587 3.143050406369745 12.576709783102663 0 0 0
408 1 1.570705470281022 4.714301237350117 14.14948537199085 0 0 0
409 1 3.1423601851836844 3.1417714069222606 12.576790647317493 0 0 0
410 1 4.711729958565653 4.710749842857968 14.15100122382488 0 0 0
411 1 6.28562229042246 3.1387475861143876 12.576945584951805 0 0 0
412 1 7.856910484211298 4.705207689124032 14.151938720965695 0 0 0
413 1 9.432377212359137 3.1400800288659925 12.577880390154819 0 0 0
414 1 11.005548139392028 4.710356499456158 14.151213752179963 0 0 0
415 1 12.579778096039943 3.139182416510444 12.578004745656616 0 0 0
416 1 14.15435356085103 4.709705465284631 14.15136305026027 0 0 0
417 1 15.724298813740782 3.1415142953835113 12.576827538377627 0 0 0
418 1 17.296991867454086 4.713745009205154 14.149503748156258 0 0 0
419 1 18.867336730872356 3.142873981982935 12.576713212017543 0 0 0
420 1 20.43887453048395 4.7149695047220215 14.149145572560005 0 0 0
421 1 0.0001389173103235295 6.287230866929291 12.576693290127947 0 0 0
422 1 1.5707229130131541 7.85971622150469 14.149153507351077 0 0 0
423 1 3.140004705101817 6.284877116955046 12.576831568675109 0 0 0
424 1 4.706700931897783 7.85598787354978 14.151398042944942 0 0 0
425 1 6.277244957590484 6.275655886221915 12.577624674600886 0 0 0
426 1 7.818492541459876 7.819668751013063 14.186171353733679 0 0 0
427 1 9.42838925359692 6.286541764040551 12.57971428981475 0 0 0
428 1 11.026607689464933 7.845227910890532 14.182904214488637 0 0 0
429 1 12.582612137913243 6.277819532621202 12.582713952361157 0 0 0
430 1 14.16605388873108 7.848010909404094 14.157047378028626 0 0 0
431 1 15.72695608326472 6.283968221508704 12.576906413663364 0 0 0
432 1 17.299570971297882 7.858277841139138 14.149624564609097 0 0 0
433 1 18.868459760764885 6.286733729984946 12.576705292199192 0 0 0
434 1 20.439618970180636 7.85986307145069 14.148976443785719 0 0 0
435 1 0.00115982270180556 9.432642781538682 12.576634613832105 0 0 0
436 1 1.5725478863411415 11.004841377274067 14.149018061629588 0 0 0
437 1 3.1436696346751956 9.432557203496115 12.576691465718396 0 0 0
438 1 4.715983313349777 11.00502267492465 14.149307974082413 0 0 0