LAMMPS data file via write_data, version 2 Aug 2023, timestep = 27, units = metal

689 atoms
3 atom types

0 22.009546999999998 xlo xhi
0 22.009546999999998 ylo yhi
0 22.009546999999998 zlo zhi

Masses

1 183.84
2 1.008
3 4.0026

Atoms # atomic

1 1 0.0008850598483766199 22.00938118238088 0.0008377329225384112 0 -1 0
2 1 1.572433706235864 1.5715611854630809 1.5725989579928141 0 0 0
3 1 3.1441792122233685 22.009451150127134 0.0011293472087194167 0 -1 0
4 1 4.716408655787016 1.5716049993086347 1.572804139444845 0 0 0
5 1 6.288609098957094 1.5596267216059743e-05 0.0013806139440481876 0 0 0
6 1 7.861168080364863 1.5717115413489047 1.5730728414927635 0 0 0
7 1 9.433594437441014 7.512746771204446e-05 0.0015240100898179245 0 0 0
8 1 11.006145050302935 1.5717620494418985 1.5731908645840802 0 0 0
9 1 12.578643541062151 8.730411963904187e-05 0.0014823965713906641 0 0 0
10 1 14.151016442890073 1.571733892172141 1.5731074681772277 0 0 0
11 1 15.723399291917081 1.9018675394348223e-05 0.0012864783182300512 0 0 0
12 1 17.29553464695811 1.5716130166196607 1.5728363783018833 0 0 0
13 1 18.86747608323752 22.009451766289025 0.0010455124713235557 0 -1 0
14 1 20.439147500723855 1.5716262390201952 1.572608477446991 0 0 0
15 1 0.0010943820594283829 3.143383427027042 0.0010105754661615992 0 0 0
16 1 1.572663472367261 4.715584537485367 1.5724508473031706 0 0 0
17 1 3.1438633888955616 3.142878033894194 0.0015580735483979446 0 0 0
18 1 4.7159646074755655 4.714962836126718 1.572649035714359 0 0 0
19 1 6.288403091982631 3.142745689923343 0.002006376191525978 0 0 0
20 1 7.860989743577381 4.714968862365949 1.5732111038839574 0 0 0
21 1 9.433561502702084 3.1427165121729947 0.0022758738248222616 0 0 0
22 1 11.006214615719387 4.714983396323465 1.573488520096565 0 0 0
23 1 12.578810681502182 3.1427099025896954 0.002278349845184729 0 0 0
24 1 14.151415016752551 4.7149283588846425 1.5732783278527698 0 0 0
25 1 15.723819807398769 3.1427004027353127 0.001972375283026929 0 0 0
26 1 17.296297352228443 4.714872897403558 1.572724550451704 0 0 0
27 1 18.86797010746226 3.1429459486465112 0.0013818819907690976 0 0 0
28 1 20.439456869065417 4.71553667985041 1.5725066417707299 0 0 0
29 1 0.001444153101171537 6.287770455619825 0.0007866257036330046 0 0 0
30 1 1.5729091521983096 7.860110321006745 1.5721680161825016 0 0 0
31 1 3.144254867143595 6.287604832102925 0.0010948081965728655 0 0 0
32 1 4.716176867220727 7.859952753573744 1.5720933539074766 0 0 0
33 1 6.287936775331462 6.286740279167952 0.002451706651679724 0 0 0
34 1 7.86080976257875 7.859712588275968 1.5722644910377648 0 0 0
35 1 9.43342022632498 6.286479930599583 0.0029220129408965272 0 0 0
36 1 11.00623838677849 7.859546481820349 1.5727231323509425 0 0 0
37 1 12.579159971492134 6.286481344885292 0.002989908054837225 0 0 0
38 1 14.151980745540568 7.859452603945678 1.572417071187049 0 0 0
39 1 15.72472441739521 6.286468380861156 0.002460729427172372 0 0 0
40 1 17.29666388769829 7.859622478066688 1.5723124006359988 0 0 0
41 1 18.86829897962954 6.28736154234529 0.0011964486126883934 0 0 0
42 1 20.439730668815134 7.860017573610387 1.5722611365772037 0 0 0
43 1 0.0016564775922166884 9.432398185016389 0.0005354142036947144 0 0 0
44 1 1.5729817168040596 11.004803159870129 1.5719086438214542 0 0 0
45 1 3.1444893450650397 9.432389483684386 0.0006131591849328384 0 0 0
46 1 4.716148509866763 11.004908262193544 1.571611096079583 0 0 0
47 1 6.2882470859156525 9.43229634338889 0.0010695224580489211 0 0 0
48 1 7.86059329684844 11.00506715796904 1.5712867079589934 0 0 0
49 1 9.433542522747064 9.432287266480913 0.001732652441258385 0 0 0
50 1 11.00629371181402 11.005173393651468 1.5711189894439952 0 0 0
51 1 12.579325903626703 9.432123444606642 0.0023058233398618867 0 0 0
52 1 14.152445123238856 11.004996133933085 1.5715034277424584 0 0 0
53 1 15.725007865044455 9.43189159815561 0.0017409783791585973 0 0 0
54 1 17.296854974231735 11.004829511023017 1.5718467084609433 0 0 0
55 1 18.86849113813264 9.43220959692223 0.0008744057299153847 0 0 0
56 1 20.439844765134378 11.004759706424105 1.5720012817966362 0 0 0
57 1 0.0016354204001170357 12.577067441837924 0.00034761057282127185 0 0 0
58 1 1.5728129191203724 14.149514076191386 1.571833991325408 0 0 0
59 1 3.1444551633825157 12.577180213476252 0.00037507397324742765 0 0 0
60 1 4.715971455695341 14.149937786591043 1.5714906252572036 0 0 0
61 1 6.288188103014936 12.577418282639211 0.0006510181856606374 0 0 0
62 1 7.860495107692274 14.150634969417881 1.5711560460277478 0 0 0
63 1 9.433472518027985 12.577687197766032 0.0012686959733041075 0 0 0
64 1 11.00619549720591 14.15104007659379 1.5711946348447925 0 0 0
65 1 12.579394255341283 12.577789421695607 0.0018552671467887537 0 0 0
66 1 14.152273605078149 14.150859831681876 1.5712094032659474 0 0 0
67 1 15.725071716644567 12.57769453603183 0.001345943216715586 0 0 0
68 1 17.296855018757675 14.150178009162168 1.5716615808354484 0 0 0
69 1 18.86849885925179 12.57723673801087 0.0006210967543410954 0 0 0
70 1 20.4397605018681 14.149553789666573 1.5719000800977414 0 0 0
71 1 0.0013996412186296475 15.721647131368819 0.00035337814167883083 0 0 0
72 1 1.5725288476609436 17.294057141017184 1.572006031351162 0 0 0
73 1 3.1441543388468327 15.721939784984482 0.0005357269274365562 0 0 0
74 1 4.715631537122065 17.29503480784546 1.5718594773056354 0 0 0
75 1 6.287677943019369 15.723102346813512 0.0014714523985618754 0 0 0
76 1 7.8606127236907675 17.29547755686091 1.5718610101383805 0 0 0
77 1 9.433250548654131 15.723561915234745 0.001532502947392461 0 0 0
78 1 11.00617977864571 17.295637637552737 1.571885116375208 0 0 0
79 1 12.57928804827531 15.723555049631994 0.001608939031147818 0 0 0
80 1 14.151722643023707 17.29553993902337 1.5718809711318362 0 0 0
81 1 15.724966726356707 15.723342558005879 0.0014720788375471275 0 0 0
82 1 17.296603772308323 17.295138761026603 1.5718708338391219 0 0 0
83 1 18.86835168520708 15.722134207174625 0.0006046333494656073 0 0 0
84 1 20.439517237731156 17.294095749303715 1.5720405003638203 0 0 0
85 1 0.0010587558885043898 18.865923087770412 0.0006301868306049504 0 0 0
86 1 1.572388956838339 20.438037316287133 1.5723880209291785 0 0 0
87 1 3.1437913360925704 18.866535582959475 0.0010088901020510628 0 0 0
88 1 4.716262449571155 20.438358598803244 1.5724334264445394 0 0 0
89 1 6.288266152072573 18.866914571258555 0.0011582352259482333 0 0 0
90 1 7.861030788114753 20.438573780062637 1.572528622852591 0 0 0
91 1 9.433472490282009 18.86710097949109 0.0012243970540589918 0 0 0
92 1 11.006130031281542 20.43865340767042 1.5725840067666488 0 0 0
93 1 12.578861560306075 18.867112258077825 0.001205171942747612 0 0 0
94 1 14.151120047737052 20.438601819308253 1.5725435624655755 0 0 0
95 1 15.723925678990286 18.8669599465784 0.0010994185727320309 0 0 0
96 1 17.295650154084054 20.438380395024414 1.5724514852698177 0 0 0
97 1 18.868000593390576 18.86646507049616 0.0008036982506301744 0 0 0
98 1 20.43916171330937 20.437982701087087 1.5723876345548726 0 0 0
99 1 0.0008615157214032567 3.5112047316651e-05 3.1442367829692963 0 0 0
100 1 1.5721502690220683 1.5714104318280677 4.71579655479689 0 0 0
101 1 3.1441929141169425 0.00019705609601610376 3.1440569374605625 0 0 0
102 1 4.716063342381942 1.57146464668514 4.715601128860986 0 0 0
103 1 6.288677274449702 0.0005165900218816592 3.1441321902341652 0 0 0
104 1 7.861114279416246 1.5719515395331263 4.715879824456441 0 0 0
105 1 9.433613447729108 0.0006977175402329694 3.1442602537138065 0 0 0
106 1 11.006129254846487 1.5721477989025994 4.716088313883131 0 0 0
107 1 12.578577779499257 0.000713984903467339 3.144324494086662 0 0 0
108 1 14.15100311133824 1.5719530060726894 4.716085100875391 0 0 0
109 1 15.72329065063851 0.0005245753951150084 3.1442768352579287 0 0 0
110 1 17.295743309185145 1.5714534837944583 4.715849827582507 0 0 0
111 1 18.86743953930834 0.00020918285976358946 3.144166368753521 0 0 0
112 1 20.43899190602107 1.5715272523002264 4.716069476400455 0 0 0
113 1 0.0010489200724322957 3.143484184123221 3.1441080710849336 0 0 0
114 1 1.5721331671749261 4.715170991239915 4.715417627641824 0 0 0
115 1 3.1439122137966353 3.143058374394392 3.143774635075033 0 0 0
116 1 4.714685630046202 4.713789132697671 4.7138270603561905 0 0 0
117 1 6.288611825866008 3.1432456241134528 3.1441576591346028 0 0 0
118 1 7.8608266730375975 4.714666319544492 4.715012069341414 0 0 0
119 1 9.43367552133702 3.1434725233354595 3.1445408686659655 0 0 0
120 1 11.006290081953178 4.715011775666207 4.715605711331565 0 0 0
121 1 12.578661884770497 3.1434730385149594 3.1445985451703984 0 0 0
122 1 14.151700687124025 4.714583241568136 4.7151412953666 0 0 0
123 1 15.723575200817649 3.1432167200231733 3.1442905020831753 0 0 0
124 1 17.297296444227186 4.713903641579543 4.714480628685177 0 0 0
125 1 18.86788431528299 3.1431429527684576 3.144014704971083 0 0 0
126 1 20.43959015997086 4.715209677792693 4.715659228648888 0 0 0
127 1 0.0013550737031205995 6.2877791036239365 3.1439171949413094 0 0 0
128 1 1.5724135400139376 7.859970146561798 4.715274663976719 0 0 0
129 1 3.1440842547484684 6.287576050323495 3.143535653719713 0 0 0
130 1 4.714992247721533 7.859570791205195 4.713919712715718 0 0 0
131 1 6.287819462446818 6.286858247287053 3.14266642799929 0 0 0
132 1 7.859337960449546 7.858690090686673 4.711239808282575 0 0 0
133 1 9.433521142387322 6.287119623540371 3.1436664890690538 0 0 0
134 1 11.006296948051544 7.859155367676056 4.712881589607896 0 0 0
135 1 12.57900964055236 6.2871217299723 3.14370252861811 0 0 0
136 1 14.153809241147027 7.858259504603334 4.711206971805438 0 0 0
137 1 15.724775918836238 6.286636317889104 3.142908545245076 0 0 0
138 1 17.297726543570374 7.859216246601441 4.714148930513969 0 0 0
139 1 18.86830634120891 6.2874217624482 3.143738625185527 0 0 0
140 1 20.43991965241193 7.859893792080673 4.715398599996559 0 0 0
141 1 0.0015362775730264429 9.43244722064782 3.1436692898198118 0 0 0
142 1 1.5724756372154025 11.004944442394375 4.715057545261446 0 0 0
143 1 3.144175317529805 9.432444449273161 3.143233648377649 0 0 0
144 1 4.714866207098979 11.005207078531129 4.713515113893958 0 0 0
145 1 6.287826722197706 9.432449009738772 3.142292500813376 0 0 0
146 1 7.859115534643963 11.005711086450287 4.711259257042695 0 0 0
147 1 9.433335477840533 9.432571783031491 3.141596633624782 0 0 0
148 1 11.006295015614597 11.006245850541227 4.709690650480485 0 0 0
149 1 12.57941308297471 9.43243901699265 3.141253965494437 0 0 0
150 1 14.154535464530145 11.005552412795282 4.709737750995008 0 0 0
151 1 15.725244890120674 9.432086795096861 3.1421982156392465 0 0 0
152 1 17.297992386578585 11.005057968133876 4.713523286710173 0 0 0
153 1 18.868574031217523 9.432297608462436 3.1433705707853536 0 0 0
154 1 20.44003863490104 11.004882986599565 4.715128075860914 0 0 0
155 1 0.001512585282533842 12.57723510360211 3.1435109268561803 0 0 0
156 1 1.5722293040509316 14.149916714841739 4.714994830981563 0 0 0
157 1 3.1440495397402 12.577453963705876 3.142993112327021 0 0 0
158 1 4.714492322782229 14.150937783107592 4.713231411431049 0 0 0
159 1 6.2875866284779995 12.577960612689614 3.1417411146315852 0 0 0
160 1 7.858407924203996 14.153158685905474 4.709332668589292 0 0 0
161 1 9.433069582829734 12.578489592379862 3.140439810569782 0 0 0
162 1 11.006082338353334 14.153521561195022 4.709250866144895 0 0 0
163 1 12.579626458726862 12.578559109353156 3.1399041309561957 0 0 0
164 1 14.15465987222378 14.153575045962286 4.708736356203389 0 0 0
165 1 15.725462792279394 12.578151638560433 3.1415441812146065 0 0 0
166 1 17.29815884102766 14.151142497102011 4.713293266501816 0 0 0
167 1 18.86865684818137 12.577456270269812 3.1430894502274143 0 0 0
168 1 20.43997255959962 14.149911984656784 4.715090958726632 0 0 0
169 1 0.0012973749055909544 15.721920014519885 3.143568342443623 0 0 0
170 1 1.5718963118183737 17.294659527469445 4.71511920215488 0 0 0
171 1 3.143767383660775 15.722386779789243 3.142981023479665 0 0 0
172 1 4.714013920388532 17.296771869399716 4.713072216195597 0 0 0
173 1 6.287193435701143 15.72381981738464 3.141434974398131 0 0 0
174 1 7.859777259230745 17.297225626393395 4.713033841696489 0 0 0
175 1 9.433015625950002 15.724277183876053 3.141431250092805 0 0 0
176 1 11.006131113521239 17.29730952008198 4.712988805624785 0 0 0
177 1 12.579332844465467 15.724264723533421 3.141376056887088 0 0 0
178 1 14.152542296549637 17.29728454921879 4.71300624160783 0 0 0
179 1 15.725385498517262 15.724063487254096 3.141461639858795 0 0 0
180 1 17.297933834512808 17.296695553840372 4.713550072163899 0 0 0
181 1 18.868543452056343 15.722490047310997 3.1431302650763544 0 0 0
182 1 20.439684006538485 17.29460176086704 4.715346435447029 0 0 0
183 1 0.0010124292005227662 18.86621105697058 3.1438267300716163 0 0 0
184 1 1.5720819280072704 20.438195151050945 4.715731360522181 0 0 0
185 1 3.1436370770806725 18.866942687613214 3.143347388036633 0 0 0
186 1 4.715770555881362 20.43894391025562 4.715243188996813 0 0 0
187 1 6.288125500429261 18.86746763080186 3.143214634867886 0 0 0
188 1 7.860787253700353 20.439374637658947 4.7152291085017595 0 0 0
189 1 9.433384123446695 18.867692796329514 3.143236162527575 0 0 0
190 1 11.006079497605727 20.43946680097819 4.715300544614059 0 0 0
191 1 12.578838937511495 18.86769711082479 3.1432662912532114 0 0 0
192 1 14.151248002550803 20.439343081517677 4.71541134642806 0 0 0
193 1 15.723999206379103 18.867512794607986 3.1432878164466236 0 0 0
194 1 17.295990978911945 20.43893115046084 4.715475453206956 0 0 0
195 1 18.868111167218686 18.86687290483323 3.143547464654343 0 0 0
196 1 20.439013362359905 20.438089669770587 4.715993519484411 0 0 0
197 1 0.0006570784241376699 22.009415858008456 6.2881681235981945 0 -1 0
198 1 1.5719079761158838 1.5711101746448082 7.860050501029361 0 0 0
199 1 3.1437167023441264 1.4769179839778752e-05 6.28763543582227 0 0 0
200 1 4.715276572696839 1.5704741495013612 7.859410281900554 0 0 0
201 1 6.288201908900195 0.0005685115261132122 6.287428707721001 0 0 0
202 1 7.8604903023527175 1.5708770875454863 7.8595149601791015 0 0 0
203 1 9.433472900617025 0.0010731560805121237 6.287563670998737 0 0 0
204 1 11.006067783869149 1.5715949795943323 7.859932362486453 0 0 0
205 1 12.57860192021369 0.001034398628191021 6.287725763327452 0 0 0
206 1 14.15138050676491 1.570855005182247 7.859931960046915 0 0 0
207 1 15.723583851292766 0.0005019733410550641 6.2877689164289325 0 0 0
208 1 17.295825155528494 1.570902439674829 7.86011104238323 0 0 0
209 1 18.867330743645546 22.00952864002177 6.288141170196009 0 -1 0
210 1 20.43883208357552 1.5712346153581396 7.860328820093341 0 0 0
211 1 0.0006657972468573683 3.1430277320217312 6.287770525529199 0 0 0
212 1 1.5710584491589534 4.714311225105538 7.859249417485803 0 0 0
213 1 3.142884385895441 3.142051354918599 6.286715127082451 0 0 0
214 1 4.71162577896612 4.710750692572577 7.855957598044464 0 0 0
215 1 6.2877455890820455 3.1419291098671036 6.286769592026742 0 0 0
216 1 7.859152515424743 4.711296350326725 7.857592350476008 0 0 0
217 1 9.433655215733745 3.143071061541676 6.287546942115426 0 0 0
218 1 11.006606689622146 4.713935622691777 7.859431545284316 0 0 0
219 1 12.578722073951324 3.143042050881358 6.287728151604744 0 0 0
220 1 14.154210052066563 4.710701493882692 7.857503767540082 0 0 0
221 1 15.724491112058312 3.1418317414988675 6.287053223622157 0 0 0
222 1 17.298194346340527 4.712906476940102 7.858542864359335 0 0 0
223 1 18.868003482139432 3.1426795214157233 6.287639542624227 0 0 0
224 1 20.439554229019148 4.714701969915796 7.859805427541531 0 0 0
225 1 0.0010674067194595602 6.2874593403606225 6.2875532520835975 0 0 0
226 1 1.5713450220198077 7.859760815903361 7.8594144381637046 0 0 0
227 1 3.1423196813930305 6.2865726938782185 6.286210275001166 0 0 0
228 1 4.710834956499469 7.857820720686547 7.856273200832987 0 0 0
229 1 6.283519853965957 6.282797094064247 6.281333343935615 0 0 0
230 1 7.8475725648987265 7.848064600405982 7.8427073406363625 0 0 0
231 1 9.433391898455469 6.2858267615097825 6.285262572221549 0 0 0
232 1 11.00716748186063 7.858488291768018 7.853666807253506 0 0 0
233 1 12.57981622287491 6.285866015846358 6.285214241272869 0 0 0
234 1 14.167209111198364 7.846735314351758 7.84418899865196 0 0 0
235 1 15.728960023390144 6.282720799505473 6.282508875986638 0 0 0
236 1 17.301010417397453 7.857967168394373 7.8574831660307565 0 0 0
237 1 18.869433462119108 6.286640336058834 6.28683037886652 0 0 0
238 1 20.440304828656146 7.859749750767125 7.8597006038826045 0 0 0
239 1 0.0013174103894262772 9.43240857710572 6.2873054093589085 0 0 0
240 1 1.5714854783198524 11.005002233623346 7.85910451847377 0 0 0
241 1 3.142704047396918 9.432292910377067 6.286223227963217 0 0 0
242 1 4.711601849857605 11.005483972915425 7.856007873531751 0 0 0
243 1 6.284901346678914 9.432167052428685 6.283016208599446 0 0 0
244 1 7.853651881703684 11.007031537012475 7.849549395953415 0 0 0
245 1 9.431180176782192 9.43151715907774 6.27848192420136 0 0 0
246 1 11.007326042125491 11.01007642604445 7.842820026698775 0 0 0
247 1 12.582792295413487 9.431257888363833 6.276155486455542 0 0 0
248 1 14.16336799478685 11.006633491143827 7.844973977130994 0 0 0
249 1 15.728679708844009 9.43122756714036 6.282693487604875 0 0 0
250 1 17.30090317052598 11.005164653889397 7.8564017247818185 0 0 0
251 1 18.869734591506006 9.432124237903755 6.286462652779731 0 0 0
252 1 20.440407969194702 11.004929743681307 7.859345841456811 0 0 0
253 1 0.0012591124129916502 12.577452838653302 6.287205530036164 0 0 0
254 1 1.5711566241381651 14.150113847003013 7.859358209540045 0 0 0
255 1 3.1425013571432414 12.577952659241944 6.286032928546229 0 0 0
256 1 4.710173153089229 14.153118984568106 7.855883275629226 0 0 0
257 1 6.284335560337472 12.579415635672278 6.282366610475875 0 0 0
258 1 7.844517177106366 14.167604648870636 7.839958381563432 0 0 0
259 1 9.43004797648812 12.582714023492448 6.276042799856904 0 0 0
260 1 11.006452076467944 14.162008611983596 7.843323697283237 0 0 0
261 1 12.583671032142362 12.582901516071958 6.272738005270995 0 0 0
262 1 14.170133036406128 14.169145905981257 7.839363257076628 0 0 0
263 1 15.729158869445273 12.579904731809078 6.281630571405764 0 0 0
264 1 17.301344433797475 14.15254384130526 7.856800846130687 0 0 0
265 1 18.8698177334713 12.577868575403658 6.286191480532305 0 0 0
266 1 20.440186191545134 14.150008377795642 7.859584429498503 0 0 0
267 1 0.000943208444865891 15.722278739221956 6.287398875172714 0 0 0
268 1 1.5710805304417719 17.294913496681147 7.859465061353088 0 0 0
269 1 3.1418545191571883 15.723614945517943 6.285881180362122 0 0 0
270 1 4.712007908706035 17.298583169194444 7.856484376572618 0 0 0
271 1 6.282107612684109 15.729056603085471 6.279938081645127 0 0 0
272 1 7.857712801201039 17.301426370048414 7.8556180403440905 0 0 0
273 1 9.431623381559588 15.728498915064431 6.281063008279556 0 0 0
274 1 11.006178516886218 17.30075875101184 7.8552877005662065 0 0 0
275 1 12.580946670581236 15.72845024706533 6.280648271425058 0 0 0
276 1 14.15507420316514 17.30177030331655 7.855251480394212 0 0 0
277 1 15.7303636050184 15.729205801415654 6.280500164582532 0 0 0
278 1 17.29759492082994 17.296303423462042 7.858820247638483 0 0 0
279 1 18.869714215990868 15.723387472476071 6.286425969794167 0 0 0
280 1 20.439162226030682 17.294397441628636 7.860017244450118 0 0 0
281 1 0.0005845972424228678 18.86631888410277 6.287821263163822 0 0 0
282 1 1.571882359685184 20.4379869307345 7.860092258539593 0 0 0
283 1 3.142796314150734 18.867551081886575 6.286743415918098 0 0 0
284 1 4.715269445837343 20.439096876182624 7.859404049939592 0 0 0
285 1 6.286947472830211 18.869201681538534 6.285860569732506 0 0 0
286 1 7.860303593936674 20.44003986085224 7.859128605018417 0 0 0
287 1 9.432967560407636 18.869414447310078 6.285821948060251 0 0 0
288 1 11.005980063667097 20.440149232454427 7.859103069198124 0 0 0
289 1 12.579110094196857 18.869351594297196 6.285928389182259 0 0 0
290 1 14.151435925762563 20.439822996631534 7.859489956468391 0 0 0
291 1 15.725090470440318 18.86921789277795 6.286058567390686 0 0 0
292 1 17.295692206779098 20.438403140580686 7.86010422363334 0 0 0
293 1 18.86797321144819 18.866892745847572 6.2876024161110236 0 0 0
294 1 20.438736658875612 20.43777842484483 7.860376180795716 0 0 0
295 1 0.0004985154008233176 22.00912514693796 9.432618617483351 0 -1 0
296 1 1.5717461003355673 1.5707790594336413 11.004855634962093 0 0 0
297 1 3.143477084527224 22.009232971547565 9.432280197696487 0 -1 0
298 1 4.714891390061233 1.5699594018800473 11.004636131455907 0 0 0
299 1 6.287898885295647 22.009510882404474 9.43221584926648 0 -1 0
300 1 7.86034066389867 1.5696863825518097 11.00510642336135 0 0 0
301 1 9.433154983774816 0.00024659917383795614 9.43212853652981 0 0 0
302 1 11.005578201796622 1.5691703000840842 11.005263250442814 0 0 0
303 1 12.578447060534476 0.00012598200264728662 9.43243754136434 0 0 0
304 1 14.15139840472928 1.5695816489460501 11.005090603552274 0 0 0
305 1 15.723469339865227 22.009228820915787 9.432532608790352 0 -1 0
306 1 17.295858023807877 1.5703067269729485 11.004976815872162 0 0 0
307 1 18.86719289665844 22.009085928725835 9.432653810020954 0 -1 0
308 1 20.438779947106084 1.5708698708875386 11.004984539017176 0 0 0
309 1 0.0005011774164836855 3.1427026344667968 9.43241779630994 0 0 0
310 1 1.5709420385523942 4.71393522042255 11.0046305713006 0 0 0
311 1 3.1426466102119694 3.1417277248927586 9.431827472116275 0 0 0
312 1 4.712033647741657 4.710868596865792 11.003709436851636 0 0 0
313 1 6.286400509319191 3.139550146919573 9.431199270712117 0 0 0
314 1 7.85775310374069 4.70699371505777 11.004444191879333 0 0 0
315 1 9.432586178321923 3.1401654825247878 9.431326610303431 0 0 0
316 1 11.005112926359999 4.70466233144565 11.005294235709705 0 0 0
317 1 12.57936845486419 3.1403092640419676 9.432028322462344 0 0 0
318 1 14.154039329501254 4.708867604877315 11.004805999158743 0 0 0
319 1 15.724774055147266 3.1408618641844 9.43207380953793 0 0 0
320 1 17.29790217763086 4.712537301300575 11.004709945746793 0 0 0
321 1 18.86793310525527 3.142313996710739 9.43242024982049 0 0 0
322 1 20.439431967414023 4.714316318577937 11.004890566904905 0 0 0
323 1 0.0006142233100535537 6.286964053918556 9.432192129324301 0 0 0
324 1 1.5705523185627186 7.859312317962726 11.004775316476268 0 0 0
325 1 3.1397703451422276 6.285046722925544 9.43049933191532 0 0 0
326 1 4.705834546936864 7.855287241929165 11.002572491186923 0 0 0
327 1 6.274638923362418 6.2742420725592565 9.420703587622913 0 0 0
328 1 7.820624209834601 7.823847903838564 10.971656955560794 0 0 0
329 1 9.430776375818375 6.2798533139584585 9.428898430705852 0 0 0
330 1 11.022906773993466 7.819475795391525 10.972182737091547 0 0 0
331 1 12.586715156083084 6.278237958465944 9.427600294035008 0 0 0
332 1 14.172171649569291 7.84207947331105 10.996138620311527 0 0 0
333 1 15.731326220471171 6.280970095858138 9.428089703984648 0 0 0
334 1 17.302475899381353 7.856580916009192 11.004154546741653 0 0 0
335 1 18.870108657125186 6.285997662283777 9.43173443592439 0 0 0
336 1 20.440497162198913 7.859353630836062 11.004905077289136 0 0 0
337 1 0.0010984367116922936 9.432505432325337 9.432300647778934 0 0 0
338 1 1.5722137355484196 11.004893515413722 11.004821981216057 0 0 0
339 1 3.1411662942282543 9.432598492397728 9.431337243660298 0 0 0
340 1 4.714956687511821 11.005194018323833 11.00449946082548 0 0 0
341 1 6.2763362577049255 9.431171675026523 9.425390363797387 0 0 0
342 1 7.855012048510574 11.007240340011458 10.99107721789539 0 0 0
343 1 9.396931910815074 9.399063530111682 9.398975467442495 0 0 0
344 1 11.037921783872887 11.065825158748135 10.657149200383595 0 0 0
345 1 12.625895921166782 9.397842868468828 9.388616601567517 0 0 0
346 1 14.149520425587765 11.004869167176478 10.993542493965979 0 0 0
347 1 15.73524705635428 9.430753324858498 9.428426926099915 0 0 0
348 1 17.297944996205626 11.005387003405167 11.00396332108198 0 0 0
349 1 18.870503524995975 9.432355705391855 9.431978474979719 0 0 0
350 1 20.43993349489342 11.004928147710585 11.004897371285862 0 0 0
351 1 0.0009645288139281251 12.577259482211318 9.432279224190939 0 0 0
352 1 1.5709019668915596 14.149841311452171 11.004876475575758 0 0 0
353 1 3.1411091903144865 12.577573221619964 9.431317542895394 0 0 0
354 1 4.70848652813927 14.153332480668642 11.003420667972035 0 0 0
355 1 6.275333039965473 12.581368695386912 9.425164588450142 0 0 0
356 1 7.829690093186842 14.179618051221135 10.98175113419722 0 0 0
357 1 9.387494323899862 12.628645571949978 9.393885889904444 0 0 0
358 1 11.017954427903636 14.165262970654082 10.975338330026675 0 0 0
359 1 12.634065783195243 12.630120339450784 9.379596773452848 0 0 0
360 1 14.1613388353184 14.159928762859199 11.001348728060869 0 0 0
361 1 15.735503691375733 12.580424636705608 9.42716347875862 0 0 0
362 1 17.297994823779824 14.150717817703702 11.005061912308339 0 0 0
363 1 18.870245359490905 12.577606881963069 9.431687432517878 0 0 0
364 1 20.43919406889622 14.149511286883115 11.005030553938397 0 0 0
365 1 0.00029498496602318303 15.72206579768756 9.432398390787657 0 0 0
366 1 1.5710747776606984 17.294687766037786 11.00464279805541 0 0 0
367 1 3.1405434323058214 15.723994352822633 9.430989008962886 0 0 0
368 1 4.71287977307158 17.29744273266688 11.003795444027832 0 0 0
369 1 6.2773157558698545 15.733662684626808 9.42306761396486 0 0 0
370 1 7.858032696107022 17.30142137631943 11.004011054380465 0 0 0
371 1 9.42969795355742 15.737449003089075 9.424283624339427 0 0 0
372 1 11.005117857849257 17.298659557981786 11.00329556679436 0 0 0
373 1 12.585712146488211 15.738612883583324 9.422285167980027 0 0 0
374 1 14.152528808715218 17.29792832744795 11.004255386952359 0 0 0
375 1 15.728345055478666 15.726772895632903 9.429517698548011 0 0 0
376 1 17.29636649039372 17.29507721221764 11.0046369135714 0 0 0
377 1 18.868631955426356 15.722570588143013 9.432234828068324 0 0 0
378 1 20.438746319607247 17.294071187783555 11.004858486618094 0 0 0
379 1 0.00035026305989491646 18.866071391700526 9.432493085206547 0 0 0
380 1 1.5717556203100014 20.43773226589361 11.004842413433721 0 0 0
381 1 3.1427977087860755 18.867172903565272 9.431918545310864 0 0 0
382 1 4.715034957001726 20.438615996794194 11.004569555572575 0 0 0
383 1 6.286567938257719 18.869761994623914 9.431119370860394 0 0 0
384 1 7.860338880025952 20.4391891231411 11.00484682515293 0 0 0
385 1 9.432807156633483 18.870607118574117 9.430731832046893 0 0 0
386 1 11.005583335162541 20.43859682224635 11.004861712875568 0 0 0
387 1 12.578832661252019 18.870203802589458 9.43118844374668 0 0 0
388 1 14.151136117112664 20.438351291587956 11.004834328034816 0 0 0
389 1 15.72414689472861 18.867841841747552 9.431985716174978 0 0 0
390 1 17.295479979208366 20.437692347751145 11.004885288170955 0 0 0
391 1 18.86742151434687 18.86625471421207 9.432501029660987 0 0 0
392 1 20.438577776346616 20.437434407057616 11.004963446372775 0 0 0
393 1 0.00045247890333632596 22.008871500246542 12.57733338876485 0 -1 0
394 1 1.571730461736516 1.570584464520765 14.149921264164707 0 0 0
395 1 3.1433518330512014 22.008899151666867 12.577354389953983 0 -1 0
396 1 4.714766520952443 1.5695025759881058 14.150370024610416 0 0 0
397 1 6.287487873487681 22.00882862773628 12.577442975196533 0 -1 0
398 1 7.859994414686219 1.5683521501921207 14.150645094879662 0 0 0
399 1 9.433051632868425 22.008526738807188 12.577655702837502 0 -1 0
400 1 11.00558096354478 1.5686906814364683 14.150731526801296 0 0 0
401 1 12.578505757318595 22.008112177992327 12.577658169835097 0 -1 0
402 1 14.151761054312297 1.5683098288662944 14.150722184225186 0 0 0
403 1 15.723548553507273 22.008410123914288 12.577439341512662 0 -1 0
404 1 17.296005276365097 1.5698313882753019 14.150103014256873 0 0 0
405 1 18.867175536671102 22.008679397355518 12.57735838897382 0 -1 0
406 1 20.43883548871592 1.5706538815160382 14.149819302489348 0 0 0
407 1 0.0004736605000619773 3.14240809907176 12.57742448558392 0 0 0
408 1 1.5709399002475926 4.71374724551647 14.150287224778902 0 0 0
409 1 3.142450121009728 3.1413177460353627 12.577459977375083 0 0 0
410 1 4.711760057787965 4.710221448424795 14.151648730574866 0 0 0
411 1 6.285534796428888 3.1385520114489593 12.577677391273461 0 0 0
412 1 7.856450738094641 4.703597876278039 14.153340386159735 0 0 0
413 1 9.432320002345277 3.1399997592235787 12.578847984418395 0 0 0
414 1 11.005001331745133 4.707303778141845 14.153908129979275 0 0 0
415 1 12.57939933708678 3.1375700580342247 12.578916116188344 0 0 0
416 1 14.155232372402011 4.705920405011109 14.153284679517428 0 0 0
417 1 15.725022485503539 3.1398185350752112 12.57781568855681 0 0 0
418 1 17.298240887953792 4.711894066964378 14.151035606465552 0 0 0
419 1 18.867977214936747 3.141881836570329 12.577535493841838 0 0 0
420 1 20.439548256112992 4.714107218747813 14.15015675952957 0 0 0
421 1 0.0005745128556367659 6.286585327860983 12.577483935712237 0 0 0
422 1 1.5707389142166142 7.859213179756911 14.150103959224362 0 0 0
423 1 3.1398833159917223 6.284378713311736 12.577504540570164 0 0 0
424 1 4.705771112439263 7.85447034920492 14.15292315083132 0 0 0
425 1 6.277451123682414 6.275896755984402 12.577826680041243 0 0 0
426 1 7.8179079005227825 7.814883951408359 14.189827776879183 0 0 0
427 1 9.428465088051436 6.285906043933668 12.582274733926978 0 0 0
428 1 11.021595732374282 7.837652791404682 14.190413653712977 0 0 0
429 1 12.582147817252363 6.2701950653498795 12.58273244347122 0 0 0
430 1 14.173041020639534 7.835134887746993 14.165844535826018 0 0 0
431 1 15.730126097648403 6.280442968585479 12.578406117454264 0 0 0
432 1 17.302655704798084 7.855900845204821 14.152065158020303 0 0 0
433 1 18.870021874480965 6.285496473779712 12.577713159421249 0 0 0
434 1 20.44060788192936 7.859234982407939 14.15014061082564 0 0 0
435 1 0.0014189214493059558 9.43241477297121 12.577426703893654 0 0 0
436 1 1.573264983254333 11.004767018633698 14.149627592396165 0 0 0
437 1 3.1423082440554753 9.43207594827124 12.57751586022774 0 0 0
438 1 4.719237796262841 11.005059358531755 14.149016391544725 0 0 0