LAMMPS data file via write_data, version 2 Aug 2023, timestep = 13, units = metal

688 atoms
3 atom types

0 22.009546999999998 xlo xhi
0 22.009546999999998 ylo yhi
0 22.009546999999998 zlo zhi

Masses

1 183.84
2 1.008
3 4.0026

Atoms # atomic

1 1 22.0093371185452 22.009544086610735 0.00016034990861518285 -1 -1 0
2 1 1.5715444721275356 1.5719412649780728 1.572107824973995 0 0 0
3 1 3.1432663310651643 22.00954395428922 0.000358383215373641 0 -1 0
4 1 4.715400429873294 1.5718292649515455 1.5721077582897 0 0 0
5 1 6.287554204110776 22.009543830012177 0.00050601338787468 0 -1 0
6 1 7.85995513684713 1.5717097526413015 1.5721076225783202 0 0 0
7 1 9.432388432463217 22.009543818998146 0.0005599165451949337 0 -1 0
8 1 11.004883211197889 1.5716583868737586 1.572107515111867 0 0 0
9 1 12.577365699088505 22.009543929170658 0.0005240907903001454 0 -1 0
10 1 14.149772031384702 1.5716915763302097 1.5721075250281937 0 0 0
11 1 15.722026694631895 22.009544071641617 0.0003866707764984904 0 -1 0
12 1 17.294178885010908 1.5717905575736395 1.5721076405028775 0 0 0
13 1 18.86602720729629 22.009544142285645 0.00023039791919892924 0 -1 0
14 1 20.437854976060716 1.571948996959759 1.5721077709368805 0 0 0
15 1 3.390863883943724e-05 3.144049226170192 0.0001851453518342239 0 0 0
16 1 1.5719503975267672 4.716248248481276 1.5721077195167301 0 0 0
17 1 3.143288290859377 3.143792409213488 0.00044310423908685567 0 0 0
18 1 4.715408252431533 4.715770263598902 1.572107657501147 0 0 0
19 1 6.28751196087623 3.143505484737976 0.0006245355947405135 0 0 0
20 1 7.859898640273264 4.715418880444891 1.5721075229940302 0 0 0
21 1 9.432366817925516 3.143314814065682 0.0006947603861872766 0 0 0
22 1 11.00489326459088 4.715253374349061 1.5721074179087173 0 0 0
23 1 12.577420149430475 3.143302583381685 0.0006781445072387124 0 0 0
24 1 14.149998301136046 4.715285242910805 1.5721074258805845 0 0 0
25 1 15.722233514218145 3.1434303890855357 0.0005328560717429971 0 0 0
26 1 17.294653250359683 4.715526744381096 1.5721075369994915 0 0 0
27 1 18.86634122334091 3.1437273795709304 0.00030177980480924893 0 0 0
28 1 20.43821764398995 4.71608315848451 1.5721076662092741 0 0 0
29 1 0.0005004155298851061 6.288361631644519 0.00013316156619458026 0 0 0
30 1 1.5724013600533902 7.860562805745685 1.572107583968415 0 0 0
31 1 3.1438581788736566 6.288345501096817 0.0002293921764841152 0 0 0
32 1 4.715942657239449 7.860435439596059 1.572107524498157 0 0 0
33 1 6.287486959391878 6.287612961348098 0.0009023670511779753 0 0 0
34 1 7.860021631330971 7.8599721101492195 1.5721073953238551 0 0 0
35 1 9.432283400602152 6.287208246104856 0.0010883118056481545 0 0 0
36 1 11.004931173650531 7.859641491132342 1.5721072905141829 0 0 0
37 1 12.577615555469947 6.287103411633247 0.001210511397057874 0 0 0
38 1 14.15033303675079 7.859644257020145 1.5721072982230366 0 0 0
39 1 15.722840571116249 6.287232695839548 0.0010801045844047483 0 0 0
40 1 17.294922185942205 7.859988263013324 1.5721074104177661 0 0 0
41 1 18.86670945842603 6.287954471406104 0.0003851642660494902 0 0 0
42 1 20.4385385413592 7.860398920751825 1.5721075344412394 0 0 0
43 1 0.0008051689371134593 9.432644532566632 9.704703874792137e-05 0 0 0
44 1 1.5725816268983668 11.004770522193326 1.5721075215543139 0 0 0
45 1 3.1442925448061882 9.43267590389532 7.379923406068947e-05 0 0 0
46 1 4.716177210964066 11.004770395006169 1.5721074633316574 0 0 0
47 1 6.2880023732534305 9.43250530811398 0.00033542135861219655 0 0 0
48 1 7.860112665757626 11.004770328812537 1.572107338104402 0 0 0
49 1 9.432457492267217 9.432257753332754 0.0012043997418278317 0 0 0
50 1 11.005026655803423 11.004770387384653 1.5721072282564446 0 0 0
51 1 12.577793995736005 9.432104492975744 0.0017885612473619444 0 0 0
52 1 14.150518483145651 11.004770512937254 1.5721072389785489 0 0 0
53 1 15.723049449361385 9.432158416713907 0.0011948202535401859 0 0 0
54 1 17.295022790412183 11.004770622614682 1.5721073477286747 0 0 0
55 1 18.86691450648437 9.432478866001652 0.00040674270753793214 0 0 0
56 1 20.43866540381991 11.00477062098408 1.5721074726442206 0 0 0
57 1 0.0008052483896362411 12.576896603924565 9.704842479713094e-05 0 0 0
58 1 1.5724014964278243 14.148978244523207 1.5721075837331908 0 0 0
59 1 3.1442926221237895 12.576864979876374 7.379870257514814e-05 0 0 0
60 1 4.7159427933138085 14.149105345697354 1.5721075242603828 0 0 0
61 1 6.288002446651072 12.5770353613786 0.00033542152775605243 0 0 0
62 1 7.860021765515685 14.149568549927368 1.5721073950193174 0 0 0
63 1 9.432457570335428 12.577282906646573 0.0012044009312460597 0 0 0
64 1 11.0049313187329 14.149899275412755 1.5721072902082356 0 0 0
65 1 12.577794073540101 12.57743637140553 0.0017885609961098491 0 0 0
66 1 14.150333188934475 14.149896775623596 1.5721072979664092 0 0 0
67 1 15.723049537310626 12.577382715130016 0.001194822843733417 0 0 0
68 1 17.294922339311263 14.149552984084433 1.5721074101708834 0 0 0
69 1 18.86691458896819 12.577062382701778 0.0004067444341658529 0 0 0
70 1 20.438538690666512 14.149142332394886 1.5721075343037614 0 0 0
71 1 0.000500590925296063 15.721179515672361 0.0001331633757628908 0 0 0
72 1 1.571950568324125 17.293292817050858 1.5721077190391959 0 0 0
73 1 3.1438583485384832 15.721195391658561 0.00022938912220980354 0 0 0
74 1 4.71540841061459 17.293770530455106 1.5721076571474981 0 0 0
75 1 6.287487126514598 15.721927704303999 0.0009023627618407621 0 0 0
76 1 7.859898807281391 17.29412176804751 1.5721075226799839 0 0 0
77 1 9.432283572833512 15.722332406517983 0.001088309908577224 0 0 0
78 1 11.004893444255123 17.294287386207348 1.5721074176383283 0 0 0
79 1 12.577615744894652 15.722437452974846 0.0012105136771002147 0 0 0
80 1 14.14999849304403 17.294255790182113 1.5721074256011103 0 0 0
81 1 15.722840759545171 15.722308438461893 0.001080107578879292 0 0 0
82 1 17.294653442114953 17.294014517072796 1.5721075365718813 0 0 0
83 1 18.86670964553416 15.72158679009307 0.0003851677917767989 0 0 0
84 1 20.438217821275085 17.293458111411088 1.5721076657830888 0 0 0
85 1 3.404514625510884e-05 18.865491944959224 0.0001851484590373033 0 0 0
86 1 1.5715445397541299 20.437599814776945 1.5721078249683844 0 0 0
87 1 3.143288419460429 18.86574848766316 0.00044310522533643344 0 0 0
88 1 4.7154005023728045 20.437711528350135 1.5721077582031748 0 0 0
89 1 6.2875120869364025 18.866035178497228 0.0006245342875517527 0 0 0
90 1 7.859955205866282 20.437830889369177 1.572107622370628 0 0 0
91 1 9.432366956037479 18.86622582467379 0.0006947608418381852 0 0 0
92 1 11.004883290445377 20.437882364245294 1.5721075149018358 0 0 0
93 1 12.577420298103538 18.866238274717592 0.0006781479623790122 0 0 0
94 1 14.14977211683862 20.437849460935404 1.5721075249081182 0 0 0
95 1 15.722233667731494 18.866110753706263 0.000532861177170386 0 0 0
96 1 17.294178965020564 20.43775071175302 1.572107640457404 0 0 0
97 1 18.86634136958615 18.865813892065223 0.00030178332349743394 0 0 0
98 1 20.43785505759478 20.437592289891807 1.5721077709914828 0 0 0
99 1 22.009337194709552 22.009544086554747 3.144055299984312 -1 -1 0
100 1 1.5712671240409963 1.5719145465449587 4.715877547054705 0 0 0
101 1 3.143266411203461 22.009543954336095 3.1438572540194683 0 -1 0
102 1 4.715055435079533 1.571636994736989 4.715417749113465 0 0 0
103 1 6.287554288893831 22.009543830114396 3.1437094020604492 0 -1 0
104 1 7.8597936774837365 1.5714763865843941 4.715224784325076 0 0 0
105 1 9.43238850836606 22.00954381919031 3.143655227826519 0 -1 0
106 1 11.004898549020465 1.5714488506263595 4.715210132339045 0 0 0
107 1 12.577365766085526 22.00954392935567 3.143690944836905 0 -1 0
108 1 14.149858830949086 1.571514565667006 4.715396141393607 0 0 0
109 1 15.722026757374815 22.009544071715474 3.1438285032932485 0 -1 0
110 1 17.29423710618079 1.5716560926038727 4.715733914682636 0 0 0
111 1 18.86602727251952 22.00954414228458 3.1439850478086115 0 -1 0
112 1 20.437644202352057 1.571939839089793 4.716079839591357 0 0 0
113 1 3.398195639423712e-05 3.1440492320018505 3.144030391535146 0 0 0
114 1 1.5716754069135832 4.716115208286945 4.7159250063258815 0 0 0
115 1 3.1432883713348008 3.143792418065193 3.1437724233364928 0 0 0
116 1 4.714791166537056 4.715192899964344 4.714918738415546 0 0 0
117 1 6.287512045567878 3.1435054927538357 3.1435907678210597 0 0 0
118 1 7.8596115385592755 4.714771153701395 4.7146827146507295 0 0 0
119 1 9.43236689495185 3.1433148205663093 3.1435202766143684 0 0 0
120 1 11.004919522176763 4.714648689139573 4.714570330408412 0 0 0
121 1 12.577420218259896 3.143302588489634 3.143536785399981 0 0 0
122 1 14.15026698133412 4.714724592548412 4.714688839970012 0 0 0
123 1 15.722233574981237 3.1434303917576782 3.1436822084024443 0 0 0
124 1 17.295012232132326 4.715065822661192 4.715157158057039 0 0 0
125 1 18.86634128874013 3.143727384585525 3.143913554863247 0 0 0
126 1 20.43818489083153 4.715965501553843 4.715962940516482 0 0 0
127 1 0.0005004873400368688 6.28836164168767 3.144082108821427 0 0 0
128 1 1.5723086511482278 7.860562188408276 4.716179697373139 0 0 0
129 1 3.1438582553118932 6.288345512497697 3.1439858701103156 0 0 0
130 1 4.715832324768116 7.860395581267406 4.715884365441717 0 0 0
131 1 6.287487044486592 6.287612976757305 3.14331268348125 0 0 0
132 1 7.8595407316954695 7.8592208226424205 4.713936321830171 0 0 0
133 1 9.432283477743425 6.287208259749918 3.1431264792285725 0 0 0
134 1 11.005007041580452 7.858779473319029 4.713158976735605 0 0 0
135 1 12.577615626817352 6.287103424208417 3.14300417077989 0 0 0
136 1 14.151131109943263 7.8587536363385295 4.712912769938448 0 0 0
137 1 15.72284063551696 6.287232700950868 3.143134699929138 0 0 0
138 1 17.29530102190374 7.85970765875853 4.714940814606401 0 0 0
139 1 18.866709526522524 6.287954481703337 3.1438299099130926 0 0 0
140 1 20.438575003022226 7.860362822215002 4.715963699844943 0 0 0
141 1 0.0008052386670092425 9.432644536073717 3.1441180060789335 0 0 0
142 1 1.5725714804834807 11.004770468438492 4.716253764369453 0 0 0
143 1 3.144292622002618 9.432675908898712 3.1441412466643035 0 0 0
144 1 4.716240316487524 11.004770340065859 4.716161859951891 0 0 0
145 1 6.288002458639214 9.432505313583409 3.1438794217004546 0 0 0
146 1 7.860002936007487 11.004770276883034 4.715169954745763 0 0 0
147 1 9.43245756836231 9.432257756022207 3.1430101828572745 0 0 0
148 1 11.005217457724493 11.004770332494513 4.713299336720209 0 0 0
149 1 12.577794070960735 9.432104494558967 3.1424259083376938 0 0 0
150 1 14.151347714230665 11.004770462228516 4.712706976175942 0 0 0
151 1 15.723049509482749 9.432158419274051 3.1430197846879224 0 0 0
152 1 17.295355837997995 11.004770573280352 4.7149118220223425 0 0 0
153 1 18.866914573452725 9.432478869841974 3.143808121090265 0 0 0
154 1 20.43871805350179 11.004770569576527 4.715954951318172 0 0 0
155 1 0.0008053180679711557 12.57689660076173 3.1441180043947075 0 0 0
156 1 1.5723087905919326 14.14897875429152 4.716179697307275 0 0 0
157 1 3.144292699339745 12.576864975158328 3.1441412468596748 0 0 0
158 1 4.7158324656028725 14.14914509795795 4.715884373295682 0 0 0
159 1 6.288002531984823 12.57703535618176 3.1438794212175862 0 0 0
160 1 7.859540866856895 14.150319731899698 4.713936326399898 0 0 0
161 1 9.43245764645154 12.577282904218317 3.143010181355041 0 0 0
162 1 11.005007184130084 14.150761184556254 4.713158975432812 0 0 0
163 1 12.577794148762552 12.57743637007991 3.1424259082885313 0 0 0
164 1 14.151131258888109 14.150787291601114 4.71291276565618 0 0 0
165 1 15.723049597430977 12.577382712839826 3.143019781800152 0 0 0
166 1 17.295301168462107 14.14983348294101 4.714940809217468 0 0 0
167 1 18.866914655965655 12.57706237917281 3.143808119093892 0 0 0
168 1 20.438575148318687 14.149178324676129 4.715963692942483 0 0 0
169 1 0.0005006626787299312 15.721179505680677 3.1440821063944178 0 0 0
170 1 1.5716755796385538 17.29342574383906 4.715925004497719 0 0 0
171 1 3.1438584250075023 15.721195380403064 3.1439858725102856 0 0 0
172 1 4.714791331919034 17.294347779871465 4.71491874479236 0 0 0
173 1 6.287487211570319 15.72192768915008 3.1433126870904093 0 0 0
174 1 7.859611709238078 17.29476938726496 4.714682719751926 0 0 0
175 1 9.43228364995597 15.722332393239984 3.1431264804585313 0 0 0
176 1 11.00491970252082 17.294891968617616 4.714570326917952 0 0 0
177 1 12.577615816287379 15.722437440737513 3.1430041678597163 0 0 0
178 1 14.15026716712201 17.29481633536611 4.714688833594716 0 0 0
179 1 15.722840823887132 15.722308433527795 3.1431346962892115 0 0 0
180 1 17.295012417145998 17.294475327083706 4.7151571498640354 0 0 0
181 1 18.866709713692426 15.721586779905975 3.1438299057645827 0 0 0
182 1 20.438185065744424 17.293575656335843 4.715962932719713 0 0 0
183 1 3.41183841137387e-05 18.86549193976547 3.1440303878866827 0 0 0
184 1 1.571267193806956 20.43762641470202 4.715877545616356 0 0 0
185 1 3.143288499977967 18.865748479243667 3.1437724218297474 0 0 0
186 1 4.715055507636136 20.43790368673383 4.715417750544021 0 0 0
187 1 6.287512171567186 18.866035170741185 3.1435907685760203 0 0 0
188 1 7.8597937472651 20.438064151523314 4.715224784071177 0 0 0
189 1 9.432367033078789 18.866225818332264 3.1435202756098377 0 0 0
190 1 11.004898629082545 20.438091797440215 4.715210130048332 0 0 0
191 1 12.57742036696917 18.86623826979461 3.1435367814658037 0 0 0
192 1 14.149858915982945 20.438026362595622 4.715396137078687 0 0 0
193 1 15.722233728509549 18.866110751388234 3.1436822028231823 0 0 0
194 1 17.294237185908088 20.437885063146446 4.715733908619387 0 0 0
195 1 18.866341435033206 18.86581388753677 3.14391355081429 0 0 0
196 1 20.43764428197858 20.43760133275951 4.7160798352599205 0 0 0
197 1 22.00895208049253 22.009543980402356 6.288163900343137 -1 -1 0
198 1 1.5708043471229065 1.5718314943252454 7.860063413067452 0 0 0
199 1 3.142751800690869 22.009543846275125 6.287599312125745 0 -1 0
200 1 4.714320299548076 1.5711702346529812 7.85924187767288 0 0 0
201 1 6.287096617056014 22.009543731224703 6.287149183453893 0 -1 0
202 1 7.859296818237265 1.5707120410043438 7.858885013630493 0 0 0
203 1 9.432271983766915 22.009543725255824 6.287029902008321 0 -1 0
204 1 11.004915612994177 1.570791656258065 7.8589084584768605 0 0 0
205 1 12.57747459177998 22.00954383578633 6.287176027080339 0 -1 0
206 1 14.150035172192318 1.5710647453994873 7.859350192978744 0 0 0
207 1 15.722134490220041 22.009543970891258 6.287602687229508 0 -1 0
208 1 17.293935645113326 1.571727414308899 7.860109456209376 0 0 0
209 1 18.86577412924027 22.00954403681984 6.288137529534174 0 -1 0
210 1 20.437193379589363 1.5719893481882345 7.860402699687167 0 0 0
211 1 22.00907124619254 3.1439782008775197 6.288103884151166 -1 0 0
212 1 1.5707855136393432 4.7157766524963 7.859957362884851 0 0 0
213 1 3.142614861229336 3.143425566547786 6.287390390094096 0 0 0
214 1 4.713306055470676 4.713820086513939 7.858213989564314 0 0 0
215 1 6.286768762563626 3.1425403502156675 6.28667581723777 0 0 0
216 1 7.858303894001488 4.711937125566904 7.857475473779746 0 0 0
217 1 9.432152555869738 3.1423462318918207 6.2865637193581785 0 0 0
218 1 11.005023740895437 4.712263341170971 7.857288492127865 0 0 0
219 1 12.577619328055135 3.1424604930056996 6.286656160330344 0 0 0
220 1 14.151139708758294 4.712658680914032 7.857854745199045 0 0 0
221 1 15.722576389821942 3.1427516156575463 6.2871222755041565 0 0 0
222 1 17.294484805605965 4.7152327781817185 7.859793229079326 0 0 0
223 1 18.86603004794213 3.1437320089150522 6.2880276628445975 0 0 0
224 1 20.437436237404924 4.716133477418297 7.86041701934384 0 0 0
225 1 0.0002682245991866293 6.28831995090924 6.288212099409842 0 0 0
226 1 1.5719986450522612 7.86062027558431 7.860527950887657 0 0 0
227 1 3.14327379089608 6.288083116645432 6.287818702549715 0 0 0
228 1 4.715088516152249 7.86010347426886 7.860057185328781 0 0 0
229 1 6.2855784231279666 6.285483382622233 6.2849773328328356 0 0 0
230 1 7.854679928285883 7.852873120570706 7.852669815351035 0 0 0
231 1 9.431777786407736 6.285257313727336 6.28501379947304 0 0 0
232 1 11.005572738305814 7.854380434049373 7.852275430849393 0 0 0
233 1 12.578315424583394 6.285330548537147 6.284676300218074 0 0 0
234 1 14.157134734589063 7.852252056070919 7.850954554464349 0 0 0
235 1 15.724627947398764 6.285225303137039 6.284994656833788 0 0 0
236 1 17.296544968553835 7.85879288008406 7.858450585060527 0 0 0
237 1 18.867020005924743 6.287596296390946 6.287557100237702 0 0 0
238 1 20.438407029418396 7.860365090590798 7.86027954542304 0 0 0
239 1 0.0007551378928818777 9.432659204650983 6.2882844662447415 0 0 0
240 1 1.5725964181344085 11.00477034704929 7.86059654196734 0 0 0
241 1 3.1442509395420104 9.432683341119136 6.288344126055387 0 0 0
242 1 4.71659955312559 11.004770211717691 7.860443237004836 0 0 0
243 1 6.28804764728286 9.432423086693964 6.287907740412505 0 0 0
244 1 7.860915978664492 11.004770145526395 7.85949209459733 0 0 0
245 1 9.432088866581287 9.430904705836447 6.283669029313842 0 0 0
246 1 11.006786462252917 11.004770215617556 7.853270817469969 0 0 0
247 1 12.579390708916288 9.430685489910191 6.281006964318713 0 0 0
248 1 14.15529702157571 11.004770343826761 7.851589303577899 0 0 0
249 1 15.724377072771455 9.431436801513335 6.284819322983936 0 0 0
250 1 17.296396991050656 11.004770441396198 7.8582857614263295 0 0 0
251 1 18.867209768252696 9.4323571243246 6.287481208905906 0 0 0
252 1 20.4386600351661 11.004770448663718 7.860231227276946 0 0 0
253 1 0.000755218110508583 12.57688173936449 6.288284464411851 0 0 0
254 1 1.5719987906316402 14.148920416049334 7.860527953056442 0 0 0
255 1 3.144251019784867 12.576857345364285 6.288344129814412 0 0 0
256 1 4.7150886694144525 14.149436941763879 7.860057199130655 0 0 0
257 1 6.288047729708742 12.57711737851027 6.287907748483128 0 0 0
258 1 7.854680074937815 14.156667181617077 7.8526698260031855 0 0 0
259 1 9.432088955842195 12.57863575983307 6.28366901931214 0 0 0
260 1 11.005572887208507 14.155160000337128 7.852275432829725 0 0 0
261 1 12.579390792823334 12.57885518970496 6.281006962329145 0 0 0
262 1 14.15713487612672 14.157288635391808 7.850954550983506 0 0 0
263 1 15.72437715935528 12.578104130577474 6.28481931985778 0 0 0
264 1 17.296545107526743 14.150748009308368 7.8584505774781315 0 0 0
265 1 18.86720984800974 12.577183934099832 6.287481203938978 0 0 0
266 1 20.43840717117042 14.14917580638519 7.8602795409258075 0 0 0
267 1 0.0002683996019611714 15.721220995321614 6.288212094475697 0 0 0
268 1 1.5707856892045526 17.2937640394256 7.859957360513019 0 0 0
269 1 3.1432739661902156 15.72145757262265 6.287818707103668 0 0 0
270 1 4.71330624461572 17.29572031931628 7.8582140109590295 0 0 0
271 1 6.28557860106183 15.724057078717422 6.284977349052569 0 0 0
272 1 7.858304075411214 17.297603166155355 7.85747548581416 0 0 0
273 1 9.431777962313486 15.724283141139294 6.285013800147025 0 0 0
274 1 11.005023918055368 17.297277081662607 7.857288490627945 0 0 0
275 1 12.578315604040679 15.724210126704683 6.28467629395603 0 0 0
276 1 14.151139885687023 17.296882008070796 7.857854736518294 0 0 0
277 1 15.724628122675966 15.72431563387802 6.284994653649573 0 0 0
278 1 17.29448498537714 17.29430811670809 7.859793215409684 0 0 0
279 1 18.867020183472338 15.721944764994308 6.2875570897598925 0 0 0
280 1 20.437436410426304 17.29340741782986 7.8604170085309795 0 0 0
281 1 22.009071382096987 18.86556275757852 6.288103876710743 -1 0 0
282 1 1.5708044177396423 20.437709200574467 7.860063409405363 0 0 0
283 1 3.14261499851041 18.866115117814026 6.287390395287452 0 0 0
284 1 4.714320376504504 20.438370180633374 7.859241881712457 0 0 0
285 1 6.286768897634294 18.867000108992706 6.286675825849253 0 0 0
286 1 7.859296891772303 20.438828254651487 7.858885012838685 0 0 0
287 1 9.432152695641761 18.867194220874833 6.28656371795922 0 0 0
288 1 11.004915691395935 20.438748761370647 7.858908452755936 0 0 0
289 1 12.577619472606335 18.867080175497485 6.28665615407472 0 0 0
290 1 14.150035253085054 20.438475938129766 7.85935018633962 0 0 0
291 1 15.72257653664207 18.866789323562188 6.287122265818384 0 0 0
292 1 17.293935722065175 20.43781348128761 7.8601094491709675 0 0 0
293 1 18.86603018941748 18.865809056228446 6.288027651212461 0 0 0
294 1 20.437193456190954 20.437551551575268 7.860402694242538 0 0 0
295 1 22.008594743295056 22.009543843010107 9.432493845090146 -1 -1 0
296 1 1.5705513194564544 1.5717887284526717 11.004577028749875 0 0 0
297 1 3.1423709506233277 22.009543714928384 9.432046354086454 0 -1 0
298 1 4.714025574724253 1.5709767180027254 11.004213899425347 0 0 0
299 1 6.286495927005803 22.00954360548487 9.431448684428085 0 -1 0
300 1 7.8588324756323615 1.5697584366545756 11.003886387604384 0 0 0
301 1 9.43202710993686 22.009543607253356 9.43131234371202 0 -1 0
302 1 11.00480335884268 1.5699393187749395 11.003866351827421 0 0 0
303 1 12.57753436472185 22.009543715848995 9.431568605224314 0 -1 0
304 1 14.149757517276859 1.5711406438054971 11.004319941102061 0 0 0
305 1 15.721882011709726 22.009543842869704 9.432171810704098 0 -1 0
306 1 17.293520250726846 1.571900845948276 11.004666465030931 0 0 0
307 1 18.865374632558417 22.009543899456485 9.432553495498103 0 -1 0
308 1 20.436869799634216 1.572028064220488 11.004737711471378 0 0 0
309 1 22.008596043500408 3.1439674973691503 9.432483252343994 -1 0 0
310 1 1.5703999215398723 4.7156088439850565 11.004548209754159 0 0 0
311 1 3.1421268649273992 3.1431167705317353 9.431895207771309 0 0 0
312 1 4.713059583007708 4.713239871623638 11.00380604002524 0 0 0
313 1 6.2856631825304285 3.1408397226865854 9.430726499874789 0 0 0
314 1 7.856560639079651 4.7074411569352685 11.0024867610715 0 0 0
315 1 9.431708466295573 3.140042642221601 9.4306002566479 0 0 0
316 1 11.004614791742107 4.708773758259788 11.001886192317142 0 0 0
317 1 12.577772916437132 3.1410113535301543 9.430945436279963 0 0 0
318 1 14.149903489837815 4.713417064447798 11.00386278490128 0 0 0
319 1 15.722060968528252 3.1430414710491954 9.431995792586573 0 0 0
320 1 17.293307660991932 4.715969768467952 11.004789052670402 0 0 0
321 1 18.86539020896781 3.144028894614887 9.432593117986915 0 0 0
322 1 20.436844865952153 4.716222034360465 11.004774099008714 0 0 0
323 1 22.008847202862473 6.288310245357604 9.432600339314643 -1 0 0
324 1 1.5710068844818978 7.860331667638006 11.004766702123423 0 0 0
325 1 3.1416771322302206 6.287026208892312 9.431664220158973 0 0 0
326 1 4.71199082604423 7.857389982657933 11.003734590953755 0 0 0
327 1 6.281877333398787 6.2811539790064455 9.42716087972127 0 0 0
328 1 7.843486938810418 7.837571326369251 10.992830248029453 0 0 0
329 1 9.43020401314382 6.278183028071476 9.427645459771558 0 0 0
330 1 11.005219395127062 7.8473217032058304 10.989772469026065 0 0 0
331 1 12.57970278458745 6.280171571276736 9.427632921486666 0 0 0
332 1 14.150258596441597 7.857120995251763 11.001887132546468 0 0 0
333 1 15.72287120718935 6.286331218558777 9.431260686094404 0 0 0
334 1 17.292642022269508 7.860702642605162 11.00535189256267 0 0 0
335 1 18.865582272818926 6.288313498544877 9.432726109187227 0 0 0
336 1 20.437007405073906 7.860630911464496 11.004949714209308 0 0 0
337 1 0.0003761549079196068 9.432763508094933 9.43277114082905 0 0 0
338 1 1.572649831768913 11.004770245201358 11.004821584441766 0 0 0
339 1 3.1445160072153766 9.432884478132465 9.432953460088758 0 0 0
340 1 4.71984082255131 11.004770103550538 11.004995205932815 0 0 0
341 1 6.288805404517408 9.432970521188592 9.434060831099996 0 0 0
342 1 7.882477625632876 11.004769997135284 11.011115239498336 0 0 0
343 1 9.419382821081786 9.40986435920457 9.415799226245996 0 0 0
344 1 11.021843953747437 11.004770199411228 10.829653260975348 0 0 0
345 1 12.60049332144685 9.410809950041944 9.406695141112246 0 0 0
346 1 14.15855472128575 11.004770246032274 10.991682527339147 0 0 0
347 1 15.727767836233982 9.429989379739554 9.427808115180774 0 0 0
348 1 17.293957524901767 11.004770342598759 11.004745727039998 0 0 0
349 1 18.866839799770617 9.432483738402498 9.432259273963682 0 0 0
350 1 20.43753922704541 11.004770348505847 11.00501268556819 0 0 0
351 1 0.00037623624842697794 12.576777187109782 9.432771139541073 0 0 0
352 1 1.5710070396074491 14.1492088166876 11.004766703589077 0 0 0
353 1 3.144516096844803 12.576655952734876 9.432953465839264 0 0 0
354 1 4.711991022674835 14.152150206736456 11.003734609097897 0 0 0
355 1 6.288805505781433 12.576569674367748 9.434060845619518 0 0 0
356 1 7.843487233608913 14.171968628811477 10.992830346878298 0 0 0
357 1 9.41938289137052 12.59967586276147 9.41579917390682 0 0 0
358 1 11.005219564385547 14.162218546481183 10.989772484768856 0 0 0
359 1 12.60049340764128 12.598730513459994 9.406695142078705 0 0 0
360 1 14.150258765646067 14.152419515693675 11.001887117529234 0 0 0
361 1 15.727767918185402 12.579551314690738 9.42780811436647 0 0 0
362 1 17.292642170407127 14.148838054299718 11.005351884936765 0 0 0
363 1 18.866839872936243 12.577057068242533 9.432259271340062 0 0 0
364 1 20.43700754866173 14.148909781841493 11.004949710023325 0 0 0
365 1 22.00884738041605 15.721230443316715 9.432600334122533 -1 0 0
366 1 1.570400103832803 17.293931632881403 11.004548209657765 0 0 0
367 1 3.1416773295653053 15.722514213547527 9.431664232711071 0 0 0
368 1 4.7130597814414426 17.296300324551787 11.003806048223275 0 0 0
369 1 6.2818775672696106 15.728386181471787 9.427160929359982 0 0 0
370 1 7.856560837168184 17.302098910230697 11.00248677158242 0 0 0
371 1 9.430204197036892 15.731357180357232 9.427645473775327 0 0 0
372 1 11.00461497639123 17.300766475415834 11.001886195239017 0 0 0
373 1 12.579702972890614 15.729368877900658 9.427632920581027 0 0 0
374 1 14.149903673204625 17.296123434260156 11.00386278015551 0 0 0
375 1 15.72287139011869 15.72320947920217 9.43126067583227 0 0 0
376 1 17.293307837326505 17.293570923391083 11.004789046902635 0 0 0
377 1 18.86558244863944 15.721227303604909 9.432726097999051 0 0 0
378 1 20.436845036783684 17.293318646166924 11.004774094770093 0 0 0
379 1 22.008596180975047 18.86557318892292 9.432483246706566 -1 0 0
380 1 1.5705513934898412 20.43775174701369 11.004577027247343 0 0 0
381 1 3.142127004819748 18.866423651386143 9.431895210520748 0 0 0
382 1 4.714025652668405 20.438563491067757 11.004213900268084 0 0 0
383 1 6.285663329469867 18.86870047079186 9.430726509537175 0 0 0
384 1 7.858832552002015 20.43978165827169 11.003886386797802 0 0 0
385 1 9.431708608685518 18.869497572436394 9.43060025822417 0 0 0
386 1 11.004803436708166 20.439600909869565 11.00386634972459 0 0 0
387 1 12.57777305824147 18.86852908079041 9.430945432787201 0 0 0
388 1 14.149757597318104 20.438399844622435 11.004319935889392 0 0 0
389 1 15.722061111893078 18.866499221588338 9.431995781596697 0 0 0
390 1 17.293520326419124 20.437639836285694 11.004666460214038 0 0 0
391 1 18.865390347117 18.86551190354963 9.43259310837627 0 0 0
392 1 20.436869875469636 20.437512613472443 11.004737709071545 0 0 0
393 1 22.008459840701086 22.009543781141637 12.576881294781158 -1 -1 0
394 1 1.570551237649262 1.571788723862354 14.149185567424984 0 0 0
395 1 3.142258560455058 22.009543652864114 12.57688129648619 0 -1 0
396 1 4.714025488898735 1.570976711976937 14.149548587359588 0 0 0
397 1 6.286322324773274 22.00954354768378 12.57688119276051 0 -1 0
398 1 7.858832394495096 1.5697584310754078 14.149875849091506 0 0 0
399 1 9.431932510357372 22.009543554422134 12.576881077929768 0 -1 0
400 1 11.004803287728262 1.5699393138744466 14.14989569472161 0 0 0
401 1 12.577391213712486 22.009543663517558 12.576881022349507 0 -1 0
402 1 14.149757452136756 1.571140639324205 14.149442102886207 0 0 0
403 1 15.721677751139119 22.009543786815172 12.576881075643573 0 -1 0
404 1 17.29352018176221 1.5719008430636623 14.149095777150254 0 0 0
405 1 18.86517685683523 22.009543838684355 12.576881198178851 0 -1 0
406 1 20.43686972595755 1.5720280595349856 14.14902477403384 0 0 0
407 1 22.00841619018941 3.1439602387184897 12.576881242436789 -1 0 0
408 1 1.5703998407490145 4.715608834405327 14.149214197814748 0 0 0
409 1 3.1420043567543368 3.142998610820475 12.57688124604522 0 0 0
410 1 4.713059498231109 4.713239860704027 14.149956249911506 0 0 0
411 1 6.2855231192428525 3.140381057751722 12.576881145955264 0 0 0
412 1 7.856560561565412 4.707441147611498 14.151275301744137 0 0 0
413 1 9.431640623190159 3.138153525428451 12.57688102546883 0 0 0
414 1 11.004614720183389 4.7087737456782355 14.151875679041249 0 0 0
415 1 12.577139651945636 3.14075164801719 12.576880972471605 0 0 0
416 1 14.149903424915824 4.713417053499 14.149899072303128 0 0 0
417 1 15.721546633123776 3.1433604358875304 12.576881024662383 0 0 0
418 1 17.293307592214855 4.715969764492421 14.148973003515229 0 0 0
419 1 18.865097533575554 3.1440710595542036 12.576881144870793 0 0 0
420 1 20.436844793136967 4.716222030751898 14.148988198430153 0 0 0
421 1 22.00848123809984 6.288245920123092 12.57688112467705 -1 0 0
422 1 1.5710068043734038 7.860331660692334 14.148995461597975 0 0 0
423 1 3.141505489466242 6.286712430339454 12.576881126810095 0 0 0
424 1 4.7119907347190475 7.857389970328869 14.15002747012224 0 0 0
425 1 6.282680318917127 6.280495528498068 12.576881029487245 0 0 0
426 1 7.843486838373343 7.83757130517767 14.160931605122746 0 0 0
427 1 9.430228560575669 6.268212213207901 12.576880921798905 0 0 0
428 1 11.005219322001658 7.847321675868704 14.163989205907168 0 0 0
429 1 12.574608049548262 6.278189241556081 12.576880864903641 0 0 0
430 1 14.15025854224296 7.857120970444815 14.1518745104731 0 0 0
431 1 15.720115923817055 6.287665429568323 12.57688090400151 0 0 0
432 1 17.29264195724862 7.860702633632452 14.14840993321569 0 0 0
433 1 18.864811659062042 6.28830248048469 12.576881028543115 0 0 0
434 1 20.437007333332424 7.860630906534874 14.148812346120598 0 0 0
435 1 22.009253123322566 9.432778827361966 12.57688102872403 -1 0 0
436 1 1.5726497506774673 11.004770245130931 14.14894046693864 0 0 0
437 1 3.1438340565900034 9.43277636766617 12.576881029810641 0 0 0
438 1 4.719840727433699 11.004770103427617 14.148766757081479 0 0 0
439 1 6.283712904873915 9.42808512858793 12.576880949914123 0 0 0