LAMMPS data file via write_data, version 2 Aug 2023, timestep = 13, units = metal

688 atoms
3 atom types

0 22.009546999999998 xlo xhi
0 22.009546999999998 ylo yhi
0 22.009546999999998 zlo zhi

Masses

1 183.84
2 1.008
3 4.0026

Atoms # atomic

1 1 22.009344713751158 22.009544086619204 0.00014732140177305803 -1 -1 0
2 1 1.5715557045466175 1.5719412598152553 1.5721078246038642 0 0 0
3 1 3.143289033082325 22.0095439576257 0.0003362114756551164 0 -1 0
4 1 4.715414985784903 1.5718258691794553 1.5721077575293814 0 0 0
5 1 6.287571047732101 22.009543835025983 0.0004816887843602435 0 -1 0
6 1 7.859961808837529 1.5717060369491127 1.5721076222262818 0 0 0
7 1 9.432391520605101 22.009543821533875 0.0005372511440482836 0 -1 0
8 1 11.004878586285217 1.5716559147061673 1.572107517510302 0 0 0
9 1 12.577354509530592 22.0095439272577 0.0005029543577965267 0 -1 0
10 1 14.149756706163158 1.571692643417916 1.5721075282395258 0 0 0
11 1 15.722004752942382 22.009544067088207 0.00036907400674059105 0 -1 0
12 1 17.29415588391984 1.5717935321470677 1.5721076441925914 0 0 0
13 1 18.866008915117906 22.009544138242646 0.0002152674719104699 0 -1 0
14 1 20.43784279054922 1.5719499016557998 1.5721077731784723 0 0 0
15 1 2.7826420354074896e-05 3.1440476712483325 0.00016941452885878405 0 0 0
16 1 1.5719350389363593 4.716234053671675 1.5721077192737978 0 0 0
17 1 3.143304477458255 3.1437928021562054 0.00041367055923801716 0 0 0
18 1 4.7154003983159205 4.715752027750935 1.5721076565656928 0 0 0
19 1 6.287519833468658 3.14350232698803 0.0005958741275992294 0 0 0
20 1 7.859889451279335 4.715401469627242 1.5721075218580043 0 0 0
21 1 9.4323658209314 3.1433152380247864 0.0006700900075685029 0 0 0
22 1 11.004884279584166 4.715242854916657 1.5721074203947145 0 0 0
23 1 12.577407104745598 3.1433058218707965 0.0006543574003119459 0 0 0
24 1 14.149983213663413 4.715282026767177 1.5721074288759287 0 0 0
25 1 15.722208460495834 3.143439160968216 0.000509946524136764 0 0 0
26 1 17.294621404054393 4.7155338367894455 1.5721075410535577 0 0 0
27 1 18.86631202210324 3.143736937638583 0.000282723035904528 0 0 0
28 1 20.43819185820067 4.716081385913176 1.5721076681972015 0 0 0
29 1 0.00047021542999782116 6.288352256605811 0.0001223264078731576 0 0 0
30 1 1.572359020218974 7.8605468541951415 1.5721075822113102 0 0 0
31 1 3.1438307696508105 6.2883209368246025 0.0002187552331615117 0 0 0
32 1 4.715890078970458 7.860402218438865 1.5721075230039954 0 0 0
33 1 6.287454645141632 6.287580624031817 0.0008842613906004776 0 0 0
34 1 7.859954270617804 7.859914719762719 1.5721073908919896 0 0 0
35 1 9.432265873145123 6.287190259831441 0.0010792758076925832 0 0 0
36 1 11.004916208374878 7.859605129196479 1.572107291213646 0 0 0
37 1 12.577603168600888 6.287095046538325 0.0011928115115595488 0 0 0
38 1 14.150334371476944 7.859615098302664 1.572107298206941 0 0 0
39 1 15.722811641448743 6.28723554157575 0.0010499010583837748 0 0 0
40 1 17.294886947003786 7.8599892306756605 1.5721074120822842 0 0 0
41 1 18.866670484747253 6.287958265628093 0.0003666865861717978 0 0 0
42 1 20.438497826586154 7.860394311083659 1.57210753559436 0 0 0
43 1 0.0007578986967020155 9.432639428587215 8.987599803766349e-05 0 0 0
44 1 1.5725274510624097 11.004770525993257 1.5721075187080165 0 0 0
45 1 3.144238034909011 9.432663608390357 7.421646585426378e-05 0 0 0
46 1 4.716108415725981 11.004770400841378 1.5721074600045009 0 0 0
47 1 6.287930941989497 9.432479146533963 0.00036276991071552256 0 0 0
48 1 7.860037957540627 11.004770334074234 1.57210733064922 0 0 0
49 1 9.432383625733557 9.432206108899706 0.0012907063584124058 0 0 0
50 1 11.005001571225622 11.004770389965753 1.5721072259763182 0 0 0
51 1 12.577802533702299 9.432062830083733 0.0018331140405327348 0 0 0
52 1 14.150505432486202 11.004770512828005 1.572107236800592 0 0 0
53 1 15.723010885395523 9.432159447551264 0.0011734333484001234 0 0 0
54 1 17.294982533502594 11.004770621592701 1.5721073497378812 0 0 0
55 1 18.86686712347328 9.432479242939447 0.00039066499478995 0 0 0
56 1 20.43861973570148 11.004770622256727 1.5721074738336096 0 0 0
57 1 0.0007579760479852461 12.576901711501185 8.987546613422844e-05 0 0 0
58 1 1.5723591530366094 14.148994204609872 1.5721075803543578 0 0 0
59 1 3.144238110001401 12.576877284601826 7.421481424966099e-05 0 0 0
60 1 4.7158902103161715 14.14913857908025 1.5721075211602515 0 0 0
61 1 6.287931012402609 12.57706153296428 0.00036276845296225036 0 0 0
62 1 7.859954399877712 14.14962595035284 1.5721073890532935 0 0 0
63 1 9.432383699734837 12.57733455804175 0.0012907066505089702 0 0 0
64 1 11.004916347049996 14.149935641702118 1.572107289374459 0 0 0
65 1 12.577802607903328 12.577478033997426 0.0018331126941615121 0 0 0
66 1 14.150334517371967 14.149925931706434 1.5721072963705218 0 0 0
67 1 15.723010969421237 12.577381681466568 0.0011734342517891734 0 0 0
68 1 17.29488709606869 14.149552014147428 1.572107410225617 0 0 0
69 1 18.86686720398459 12.57706200439676 0.00039066515298545075 0 0 0
70 1 20.43849797140532 14.14914694328525 1.5721075337862214 0 0 0
71 1 0.0004703859853952237 15.721188892637818 0.00012232566143462482 0 0 0
72 1 1.5719352050002589 17.29330701726546 1.5721077169118844 0 0 0
73 1 3.1438309340791153 15.721219964541838 0.00021875051510516783 0 0 0
74 1 4.715400551443166 17.293788777902957 1.572107654322558 0 0 0
75 1 6.287454806350887 15.721960052828893 0.000884255476540434 0 0 0
76 1 7.8598896131000835 17.294139189000685 1.5721075196643282 0 0 0
77 1 9.432266039107617 15.722350397633921 0.001079271706997701 0 0 0
78 1 11.004884451746175 17.29429790909936 1.5721074182411805 0 0 0
79 1 12.577603351002757 15.722445816857945 0.0011928114540227443 0 0 0
80 1 14.149983398602874 17.29425900382483 1.5721074266920563 0 0 0
81 1 15.72281182340493 15.722305587396034 0.0010499012633784902 0 0 0
82 1 17.294621590177265 17.294007418866144 1.572107538724973 0 0 0
83 1 18.866670665810368 15.721582990812216 0.00036668810089454754 0 0 0
84 1 20.438192030720526 17.293459881988877 1.572107665841151 0 0 0
85 1 2.7959278091985483e-05 18.865493499545433 0.00016941513949249613 0 0 0
86 1 1.5715557713129025 20.43759982391774 1.5721078236609531 0 0 0
87 1 3.143304602617959 18.865748103031205 0.00041367025401966304 0 0 0
88 1 4.715415056199971 20.43771493429953 1.5721077565857071 0 0 0
89 1 6.287519956192345 18.86603834698431 0.0005958719008864664 0 0 0
90 1 7.859961876406837 20.437834615072436 1.5721076212364302 0 0 0
91 1 9.432365953948466 18.866225407201643 0.0006700888306988446 0 0 0
92 1 11.00487866196742 20.437884839079313 1.5721075165020912 0 0 0
93 1 12.577407247538057 18.86623503424776 0.0006543591649160594 0 0 0
94 1 14.149756787896266 20.437848387497407 1.57210752728313 0 0 0
95 1 15.722208608150744 18.866101973903938 0.0005099493167776579 0 0 0
96 1 17.29415596186678 20.437747729602332 1.572107643230485 0 0 0
97 1 18.866312164809358 18.86580432871223 0.00028272503004085 0 0 0
98 1 20.437842869733778 20.43759138183116 1.5721077722314063 0 0 0
99 1 22.009344787797872 22.009544087593447 3.144068329545803 -1 -1 0
100 1 1.5712974440498269 1.5719203175633665 4.715914186480636 0 0 0
101 1 3.143289111348998 22.00954395860505 3.143879423420621 0 -1 0
102 1 4.715088846886618 1.5716480916887712 4.715467412166916 0 0 0
103 1 6.287571128529337 22.00954383598559 3.143733724582155 0 -1 0
104 1 7.859809126796307 1.5714886367495304 4.715273846781737 0 0 0
105 1 9.432391594252717 22.0095438225345 3.1436778953393114 0 -1 0
106 1 11.004892496412618 1.5714622402680491 4.715253939933238 0 0 0
107 1 12.577354575025455 22.009543928262076 3.143712087937398 0 -1 0
108 1 14.149833717362567 1.5715276102362266 4.715435440758252 0 0 0
109 1 15.722004814912205 22.009544068043553 3.1438461083173226 0 -1 0
110 1 17.29420807405404 1.571670547726194 4.7157657467906855 0 0 0
111 1 18.866008979322164 22.009544139184595 3.1440001845398773 0 -1 0
112 1 20.437642069569296 1.5719448372311986 4.716100818069735 0 0 0
113 1 2.7897840435097598e-05 3.1440476781647786 3.144046124704263 0 0 0
114 1 1.5716788430065871 4.716110925486771 4.715955371611212 0 0 0
115 1 3.1433045560322355 3.1437928109965894 3.143801855294242 0 0 0
116 1 4.714823132747185 4.715212496397696 4.7149875855080845 0 0 0
117 1 6.28751991479239 3.143502335825717 3.1436194288481176 0 0 0
118 1 7.8596165478663975 4.71478570360678 4.714731203318582 0 0 0
119 1 9.43236589717458 3.1433152452382602 3.1435449494404497 0 0 0
120 1 11.00490836640121 4.714671216513679 4.714609933812258 0 0 0
121 1 12.577407170424113 3.143305827106106 3.1435605776447093 0 0 0
122 1 14.150231746969611 4.714749346408423 4.714737070683355 0 0 0
123 1 15.722208521527918 3.143439163918564 3.143705126126715 0 0 0
124 1 17.294951301863144 4.715103586335943 4.715210912154409 0 0 0
125 1 18.866312085772304 3.14373694357248 3.1439326188616086 0 0 0
126 1 20.43815644371722 4.715972029956378 4.715988706662153 0 0 0
127 1 0.00047028512454278876 6.288352265743671 3.1440929456161655 0 0 0
128 1 1.57227453712918 7.860551389367489 4.716193356245738 0 0 0
129 1 3.143830846410881 6.2883209486790355 3.143996504452156 0 0 0
130 1 4.71578753383702 7.860367777083608 4.71588085558416 0 0 0
131 1 6.287454726930089 6.287580639599476 3.1433307850467234 0 0 0
132 1 7.859469509823314 7.85917467231796 4.713911418119194 0 0 0
133 1 9.432265951760138 6.2871902730793225 3.1431355131348564 0 0 0
134 1 11.004986674672976 7.858787355801888 4.7131443812358755 0 0 0
135 1 12.577603237102021 6.287095058385164 3.1430218740552167 0 0 0
136 1 14.151102151096145 7.858751425768242 4.712956513625006 0 0 0
137 1 15.722811705134392 6.287235545919669 3.143164910293629 0 0 0
138 1 17.295239841455853 7.859724288088825 4.71498393029041 0 0 0
139 1 18.86667055125548 6.287958274654899 3.1438483922084424 0 0 0
140 1 20.43852840142134 7.860363935278225 4.71598536098679 0 0 0
141 1 0.0007579664661731122 9.432639432708182 3.1441251778918784 0 0 0
142 1 1.572523141758501 11.004770472289286 4.71625919352299 0 0 0
143 1 3.144238112618876 9.432663613039304 3.144140822563574 0 0 0
144 1 4.7161776233565 11.004770345641246 4.716135693879106 0 0 0
145 1 6.287931022973942 9.432479152564586 3.143852063579998 0 0 0
146 1 7.859925992567453 11.004770281904923 4.715041745329379 0 0 0
147 1 9.432383704284081 9.432206112008055 3.142923867369865 0 0 0
148 1 11.005178095220646 11.004770333204913 4.712937172561791 0 0 0
149 1 12.577802606959024 9.43206283167085 3.1423813512517604 0 0 0
150 1 14.151272995746208 11.004770461438497 4.7127315622152715 0 0 0
151 1 15.723010946923658 9.432159450789959 3.143041173741658 0 0 0
152 1 17.295286222246446 11.004770572505292 4.714946791757116 0 0 0
153 1 18.866867189534155 9.432479247740465 3.1438242000802865 0 0 0
154 1 20.4386634214354 11.004770571013154 4.715973548987866 0 0 0
155 1 0.0007580437918383306 12.576901709445282 3.144125176387506 0 0 0
156 1 1.5722746724802206 14.14898956080485 4.7161933551164115 0 0 0
157 1 3.1442381876878116 12.57687728197919 3.1441408221257205 0 0 0
158 1 4.715787670271643 14.149172913543762 4.715880861520471 0 0 0
159 1 6.287931093338002 12.577061528963853 3.1438520629820585 0 0 0
160 1 7.8594696384783385 14.15036589306059 4.7139114193096265 0 0 0
161 1 9.43238377828531 12.577334557010836 3.1429238650139917 0 0 0
162 1 11.004986812441526 14.150753308013941 4.713144377609903 0 0 0
163 1 12.577802681184943 12.57747803448548 3.1423813505470184 0 0 0
164 1 14.151102294472732 14.150789500159293 4.71295650887616 0 0 0
165 1 15.723011030980027 12.577381680237622 3.143041170786186 0 0 0
166 1 17.295239982347034 14.149816851401763 4.71498392495214 0 0 0
167 1 18.86686727007659 12.577062001628311 3.1438241978802024 0 0 0
168 1 20.43852854263361 14.149177212370812 4.715985354149359 0 0 0
169 1 0.00047045563484712457 15.721188885478194 3.1440929417389767 0 0 0
170 1 1.571679010427118 17.29343003381297 4.715955367717373 0 0 0
171 1 3.143831010786156 15.721219954651339 3.1439965045622276 0 0 0
172 1 4.714823292730142 17.29432819648076 4.714987588634894 0 0 0
173 1 6.287454888023745 15.721960039233853 3.143330786434422 0 0 0
174 1 7.859616712199858 17.29475484817305 4.714731205541043 0 0 0
175 1 9.432266117684641 15.722350386434702 3.1431355127670275 0 0 0
176 1 11.00490854108388 17.294869445111637 4.714609928240062 0 0 0
177 1 12.577603419584031 15.722445807053369 3.1430218696270615 0 0 0
178 1 14.150231926548097 17.294791576770848 4.714737064870386 0 0 0
179 1 15.722811887186394 15.72230558497318 3.1431649055102486 0 0 0
180 1 17.29495148088423 17.294437558909962 4.715210902444961 0 0 0
181 1 18.866670732379255 15.7215829837111 3.143848386088757 0 0 0
182 1 20.438156614986838 17.29356912847599 4.715988697741348 0 0 0
183 1 2.8030635291904614e-05 18.865493494822253 3.144046120388165 0 0 0
184 1 1.571297512255421 20.437620649771638 4.715914184065802 0 0 0
185 1 3.1433046811620975 18.86574809627699 3.143801852035432 0 0 0
186 1 4.715088917178588 20.437892602196545 4.715467412290495 0 0 0
187 1 6.287520037426093 18.86603834012679 3.1436194275459886 0 0 0
188 1 7.859809194359817 20.438051911674034 4.715273845731485 0 0 0
189 1 9.432366030167948 18.866225401941996 3.1435449470993 0 0 0
190 1 11.004892573455315 20.43807841162248 4.715253937676768 0 0 0
191 1 12.577407313277302 18.86623503097233 3.143560572398288 0 0 0
192 1 14.149833798614225 20.438013313853165 4.715435435134935 0 0 0
193 1 15.72220866924605 18.86610197294421 3.1437051197981125 0 0 0
194 1 17.29420815153967 20.437870602065644 4.715765740133895 0 0 0
195 1 18.866312228505052 18.865804324822435 3.143932613207501 0 0 0
196 1 20.437642147277057 20.43759633329216 4.716100813301787 0 0 0
197 1 22.008979289795313 22.009543981612122 6.288193119623928 -1 -1 0
198 1 1.5708606352684178 1.571843879449557 7.860103945747584 0 0 0
199 1 3.1428068350997957 22.009543850967507 6.2876567814656426 0 -1 0
200 1 4.714401313085899 1.571215179965824 7.859317251124115 0 0 0
201 1 6.28713643320382 22.00954373726416 6.287211825281178 0 -1 0
202 1 7.859333524500596 1.5707642579131529 7.858952680009295 0 0 0
203 1 9.432279655047957 22.009543728501576 6.287090420889721 0 -1 0
204 1 11.004905992306531 1.5708406174164091 7.858968880302594 0 0 0
205 1 12.577453349070467 22.00954383483089 6.287226235754286 0 -1 0
206 1 14.149998914685222 1.571104418915741 7.859392391027732 0 0 0
207 1 15.722103008491606 22.009543968255027 6.287641273602894 0 -1 0
208 1 17.293919622902752 1.571738177573804 7.860127775176151 0 0 0
209 1 18.86576824958014 22.009544034600385 6.288158026560237 0 -1 0
210 1 20.43721091665344 1.5719951069422975 7.860423258835749 0 0 0
211 1 22.00909499862421 3.1439875484118582 6.2881368609409956 -1 0 0
212 1 1.57084938681796 4.715807909449534 7.860006721586386 0 0 0
213 1 3.14268056055767 3.1434606521951016 6.287461423303475 0 0 0
214 1 4.713455050875636 4.713955402325374 7.858354072566486 0 0 0
215 1 6.286819000580496 3.1425960788589555 6.286756613351321 0 0 0
216 1 7.858379401986825 4.7121061244200195 7.857582205114829 0 0 0
217 1 9.432162673230065 3.142402301755792 6.286629225329655 0 0 0
218 1 11.00499973217783 4.712422914222844 7.857384342185769 0 0 0
219 1 12.577589095539835 3.1425163107118075 6.286718142287745 0 0 0
220 1 14.151030906558926 4.712818871531625 7.857951600338882 0 0 0
221 1 15.722519115471494 3.142808725302847 6.287179212301688 0 0 0
222 1 17.29443842546846 4.7152683919754805 7.8598128696388585 0 0 0
223 1 18.866011033447883 3.1437468366609878 6.288051428647478 0 0 0
224 1 20.43744027415442 4.71614423546507 7.860436884727735 0 0 0
225 1 0.0002500013588088237 6.288320104749553 6.288236226102411 0 0 0
226 1 1.5719946556788928 7.860614913128418 7.860539801488474 0 0 0
227 1 3.14329047767724 6.288085571790121 6.287853415338106 0 0 0
228 1 4.715120656306074 7.860107930776396 7.860061357059053 0 0 0
229 1 6.285656839350215 6.2855703900264395 6.285106311822059 0 0 0
230 1 7.854864132707052 7.8531315760709 7.852877969528106 0 0 0
231 1 9.431783498509734 6.285329628276646 6.285064089250207 0 0 0
232 1 11.005525686405015 7.8546242139693705 7.8523884356114895 0 0 0
233 1 12.57826040400827 6.285408257199976 6.284754941276671 0 0 0
234 1 14.156720484310778 7.852634312086844 7.851297595205833 0 0 0
235 1 15.724473332718794 6.285355179656319 6.285124231954198 0 0 0
236 1 17.296392283880515 7.858860373600473 7.858515265616149 0 0 0
237 1 18.866950066852365 6.287626346694255 6.287598721535664 0 0 0
238 1 20.438358757924707 7.8603720132235875 7.860297659908316 0 0 0
239 1 0.0007104951980995542 9.432656925651077 6.288301585385502 0 0 0
240 1 1.5725615576196774 11.004770348805282 7.860602416753631 0 0 0
241 1 3.1442145726626287 9.432676601328277 6.288342891372038 0 0 0
242 1 4.716566532125651 11.004770215524221 7.860418339991163 0 0 0
243 1 6.287975238067097 9.432394604122665 6.287829692088996 0 0 0
244 1 7.860801950278699 11.00477014867004 7.8592155196629765 0 0 0
245 1 9.431912390459784 9.430812173084977 6.283384079863685 0 0 0
246 1 11.00661217750669 11.004770217542893 7.851461097376967 0 0 0
247 1 12.57939255659073 9.430616052364686 6.2809397543828585 0 0 0
248 1 14.154952031624108 11.004770340551442 7.851743991835401 0 0 0
249 1 15.724252526131197 9.43147495905362 6.28489457411561 0 0 0
250 1 17.296235152309627 11.004770438249231 7.858346163791699 0 0 0
251 1 18.86712923930493 9.43236764057589 6.287516201964336 0 0 0
252 1 20.438594626065004 11.004770448706143 7.860250545589055 0 0 0
253 1 0.0007105731732437161 12.576884021913715 6.288301582923223 0 0 0
254 1 1.57199479832114 14.148925783390819 7.860539802572486 0 0 0
255 1 3.1442146499883523 12.576864093380888 6.2883428935112144 0 0 0
256 1 4.715120803967066 14.149432493456503 7.860061367870598 0 0 0
257 1 6.287975317192757 12.57714587062897 6.287829699344733 0 0 0
258 1 7.854864274521103 14.15640873222157 7.852877972805596 0 0 0
259 1 9.431912475771485 12.578728297028253 6.283384070177334 0 0 0
260 1 11.005525828611237 14.15491621517227 7.852388435646711 0 0 0
261 1 12.579392635249178 12.578924623756873 6.280939750489462 0 0 0
262 1 14.156720620579247 14.156906375602363 7.851297587028964 0 0 0
263 1 15.724252609105498 12.578065968001434 6.284894570305445 0 0 0
264 1 17.296392420070383 14.150680512193407 7.858515257412234 0 0 0
265 1 18.86712931660143 12.577173416619578 6.287516197380658 0 0 0
266 1 20.438358896036068 14.149168883017902 7.860297655268935 0 0 0
267 1 0.0002501726625083122 15.721220844918845 6.288236220495669 0 0 0
268 1 1.570849557781565 17.293732788230624 7.860006716946787 0 0 0
269 1 3.143290647922828 15.7214551264656 6.2878534180898304 0 0 0
270 1 4.713455230669276 17.29558501733281 7.8583540859844 0 0 0
271 1 6.28565700867527 15.72397008600745 6.285106321518418 0 0 0
272 1 7.858379576638293 17.297434176755903 7.857582211379483 0 0 0
273 1 9.431783670115925 15.72421083430039 6.285064085814697 0 0 0
274 1 11.00499990184022 17.297117508484753 7.857384338824455 0 0 0
275 1 12.578260574545714 15.72413241682465 6.28475493418287 0 0 0
276 1 14.151031077902894 17.296721812778774 7.857951591691638 0 0 0
277 1 15.724473505953412 15.724185756389582 6.285124226468694 0 0 0
278 1 17.294438598527307 17.294272497128507 7.859812855073392 0 0 0
279 1 18.86695023916094 15.72191471240367 6.287598710722791 0 0 0
280 1 20.437440443139486 17.293396659226836 7.860436872655584 0 0 0
281 1 22.0090951313438 18.86555341273244 6.288136852622907 -1 0 0
282 1 1.5708607045609742 20.43769682149676 7.860103941872568 0 0 0
283 1 3.142680694160223 18.8660800425543 6.287461426066073 0 0 0
284 1 4.714401388244444 20.438325245245842 7.859317254002479 0 0 0
285 1 6.286819131009915 18.86694439374277 6.286756617708972 0 0 0
286 1 7.859333595001999 20.438776044538535 7.858952678824064 0 0 0
287 1 9.432162808406162 18.867138158085197 6.286629222293094 0 0 0
288 1 11.004906067799045 20.438699799774476 7.858968875319072 0 0 0
289 1 12.57758923510203 18.867024356314996 6.286718135869776 0 0 0
290 1 14.149998991624408 20.43843625986209 7.8593923842028435 0 0 0
291 1 15.722519256978197 18.86673220886333 6.287179201546026 0 0 0
292 1 17.293919698407002 20.437802713420385 7.860127767224723 0 0 0
293 1 18.86601117113843 18.86579422543519 6.28805141647496 0 0 0
294 1 20.437210991230955 20.437545791289086 7.860423253424932 0 0 0
295 1 22.008639956263192 22.00954384372354 9.43251564495792 -1 -1 0
296 1 1.5706260640251504 1.5718095600408997 11.004595245233293 0 0 0
297 1 3.142452592464014 22.00954371938899 9.432089774839165 0 -1 0
298 1 4.714134004361128 1.571039201741238 11.004246913872336 0 0 0
299 1 6.286569141347836 22.009543607553468 9.431504284151416 0 -1 0
300 1 7.858895253743075 1.5698571434854385 11.003918254249601 0 0 0
301 1 9.432042976118321 22.009543607812486 9.431358761964393 0 -1 0
302 1 11.004799667832073 1.570005176137661 11.003885774406042 0 0 0
303 1 12.577513349114847 22.009543713193015 9.431600316688282 0 -1 0
304 1 14.149735220736138 1.571167167529767 11.004326374220389 0 0 0
305 1 15.721863059546273 22.009543840138143 9.432186363333924 0 -1 0
306 1 17.293512484941502 1.5719127440467244 11.004673277205129 0 0 0
307 1 18.865380858741172 22.009543896649397 9.432566624161346 0 -1 0
308 1 20.436898404843657 1.5720367298159605 11.004746150636542 0 0 0
309 1 22.00864273039427 3.1439866202235525 9.43250602409062 -1 0 0
310 1 1.5704909274534324 4.715659930186623 11.004567681952395 0 0 0
311 1 3.142225889162771 3.143177850229048 9.431947094359032 0 0 0
312 1 4.713233333104566 4.713409847093658 11.003864063260572 0 0 0
313 1 6.285782148802786 3.141009425010339 9.43081979382524 0 0 0
314 1 7.856742761312987 4.707850558579065 11.002562697310458 0 0 0
315 1 9.431728993299208 3.140201622311495 9.430665866149488 0 0 0
316 1 11.004611042391492 4.7089877315091995 11.001932135148678 0 0 0
317 1 12.577738289093025 3.14113258239367 9.43098958809078 0 0 0
318 1 14.1498847726341 4.713483396559205 11.003842241827432 0 0 0
319 1 15.722034991637681 3.143073859205842 9.432004055357682 0 0 0
320 1 17.29329011729559 4.715998882482374 11.004792235594309 0 0 0
321 1 18.865390918277857 3.144042112026427 9.432604511474853 0 0 0
322 1 20.436868015280055 4.7162386555523925 11.004781175210141 0 0 0
323 1 22.00888155209322 6.288324326380945 9.432617116692091 -1 0 0
324 1 1.571072474300754 7.860352493725368 11.004773362808669 0 0 0
325 1 3.1418228955053005 6.28710749678629 9.431728410053106 0 0 0
326 1 4.712259691461313 7.8575599657525705 11.003782806443978 0 0 0
327 1 6.282264105887705 6.281570244524079 9.427474530847084 0 0 0
328 1 7.844592067991211 7.838803447682977 10.993549716140546 0 0 0
329 1 9.430266333712144 6.278604182041443 9.427763217544008 0 0 0
330 1 11.004980261065029 7.847717173123242 10.990317216399776 0 0 0
331 1 12.579520227511306 6.280566880653583 9.427790259323865 0 0 0
332 1 14.150247328723657 7.85716093668174 11.00170153615818 0 0 0
333 1 15.722811172454684 6.286381501833957 9.431247490136474 0 0 0
334 1 17.292623652512827 7.860718216084101 11.005313654136565 0 0 0
335 1 18.865563655638738 6.288325025139984 9.43272680916257 0 0 0
336 1 20.437009519787214 7.860636605520384 11.004947098770836 0 0 0
337 1 0.0003505863040241296 9.432759998647384 9.432774520037164 0 0 0
338 1 1.5726210441766408 11.00477024492732 11.004819351069454 0 0 0
339 1 3.144506542042788 9.432873442447084 9.43293858669923 0 0 0
340 1 4.719676775293762 11.00477010184625 11.004950513782324 0 0 0
341 1 6.288804081601716 9.432910802232314 9.433919060848973 0 0 0
342 1 7.881308197703716 11.004769998616949 11.010586089910385 0 0 0
343 1 9.419907824187108 9.410824050335886 9.415761034106104 0 0 0
344 1 11.019480294228797 11.004770183523764 10.836213783214934 0 0 0
345 1 12.599187343403933 9.411999750074502 9.40750581152593 0 0 0
346 1 14.158404519226767 11.004770238994434 10.991855309039924 0 0 0
347 1 15.727440733546901 9.430079240731363 9.427878776915305 0 0 0
348 1 17.293913618046968 11.00477034042993 11.004712193012697 0 0 0
349 1 18.8667540448471 9.43248987066545 9.432262456876812 0 0 0
350 1 20.437513353242927 11.004770347811508 11.00500480130124 0 0 0
351 1 0.00035066559828833506 12.576780696820348 9.432774518566848 0 0 0
352 1 1.5710726242615887 14.149187993010253 11.00477336218881 0 0 0
353 1 3.1445066292885686 12.57666699107411 9.432938591459571 0 0 0
354 1 4.712259875448323 14.151980226982657 11.003782820326599 0 0 0
355 1 6.288804181506703 12.57662939086785 9.433919077986925 0 0 0
356 1 7.844592338189264 14.170736524949975 10.993549796827763 0 0 0
357 1 9.419907891177287 12.598716164003724 9.415760992876438 0 0 0
358 1 11.004980422617871 14.161823066367905 10.990317218727188 0 0 0
359 1 12.599187431355528 12.597540697047268 9.407505810390177 0 0 0
360 1 14.150247483860026 14.152379557839659 11.001701521887648 0 0 0
361 1 15.727440815573077 12.579461445599192 9.427878775243292 0 0 0
362 1 17.29262379337648 14.148822474346412 11.005313646812043 0 0 0
363 1 18.866754118439406 12.577050932492888 9.432262453609038 0 0 0
364 1 20.43700965888596 14.148904084671537 11.004947093265097 0 0 0
365 1 22.00888172606479 15.721216363726397 9.432617110135391 -1 0 0
366 1 1.5704911045869567 17.29388055048948 11.004567679976253 0 0 0
367 1 3.141823084761457 15.722432933284574 9.431728418641153 0 0 0
368 1 4.713233523661698 17.29613035536858 11.003864068794385 0 0 0
369 1 6.282264323271989 15.727969929465894 9.427474568836963 0 0 0
370 1 7.856742955696464 17.30168950797091 11.002562705848021 0 0 0
371 1 9.430266510617864 15.73093602731603 9.427763223634551 0 0 0
372 1 11.004611220669652 17.300552490595013 11.001932136746689 0 0 0
373 1 12.579520407343171 15.728973562383286 9.427790255186085 0 0 0
374 1 14.149884949787634 17.29605709067348 11.003842236512748 0 0 0
375 1 15.7228113457053 15.72315918826183 9.431247481596401 0 0 0
376 1 17.293290287451384 17.293541801156792 11.004792228199301 0 0 0
377 1 18.865563826051154 15.721215773067428 9.432726796925197 0 0 0
378 1 20.43686818345395 17.29330202395719 11.004781169230284 0 0 0
379 1 22.008642864052497 18.865554067399444 9.432506017442952 -1 0 0
380 1 1.570626135384331 20.437730919528835 11.004595242072105 0 0 0
381 1 3.142226026526434 18.86636257852865 9.43194709461697 0 0 0
382 1 4.714134080071261 20.43850101279985 11.004246913410404 0 0 0
383 1 6.285782292220958 18.868530774051333 9.430819802161514 0 0 0
384 1 7.8588953271215525 20.439682950588434 11.003918253421894 0 0 0
385 1 9.43172913047588 18.869338589150797 9.430665867604338 0 0 0
386 1 11.004799743583112 20.439535045623064 11.003885772795957 0 0 0
387 1 12.577738426638641 18.868407845860713 9.430989584479725 0 0 0
388 1 14.149735295915574 20.438373311763886 11.004326369383334 0 0 0
389 1 15.7220351297399 18.866466826226397 9.432004043773171 0 0 0
390 1 17.2935125588159 20.43762793202941 11.004673272018477 0 0 0
391 1 18.865391053438355 18.865498683256856 9.432604500816625 0 0 0
392 1 20.436898478120753 20.437503944762497 11.00474614700983 0 0 0
393 1 22.008513568808688 22.009543780562467 12.576881299266265 -1 -1 0
394 1 1.570625984644793 1.5718095548037796 14.149167357100533 0 0 0
395 1 3.142352214327262 22.009543655547148 12.57688129902195 0 -1 0
396 1 4.714133921862857 1.5710391949011866 14.149515577426296 0 0 0
397 1 6.286414233364659 22.00954354808201 12.576881195545067 0 -1 0
398 1 7.858895176174461 1.5698571373380643 14.149843984465244 0 0 0
399 1 9.43195547925471 22.0095435514906 12.576881080180993 0 -1 0
400 1 11.004799600875984 1.5700051699440722 14.149876279811252 0 0 0
401 1 12.577375210240215 22.00954365812907 12.576881027381923 0 -1 0
402 1 14.149735157595426 1.5711671616883234 14.14943568217675 0 0 0
403 1 15.721660396458866 22.009543782819335 12.576881082286013 0 -1 0
404 1 17.29351241817643 1.5719127402424138 14.149088979598762 0 0 0
405 1 18.86518808992754 22.009543835374174 12.576881204916154 0 -1 0
406 1 20.436898332891925 1.572036725464941 14.149016346108992 0 0 0
407 1 22.0084715501285 3.143983215117459 12.57688124685564 -1 0 0
408 1 1.5704908500780006 4.715659921062685 14.149194729225492 0 0 0
409 1 3.1421152034526334 3.143069379739675 12.576881248082607 0 0 0
410 1 4.713233250686451 4.713409836002275 14.149898228701872 0 0 0
411 1 6.285673872718526 3.1405797095423473 12.576881145895303 0 0 0
412 1 7.856742686378771 4.707850547928933 14.151199362577103 0 0 0
413 1 9.431680331118342 3.138349697741588 12.576881027812957 0 0 0
414 1 11.004610974493941 4.708987720104468 14.151829742108838 0 0 0
415 1 12.577130869971748 3.140814199956968 12.576880977674806 0 0 0
416 1 14.149884708917337 4.713483383723755 14.149919624130906 0 0 0
417 1 15.721523866019908 3.143399514312474 12.576881030254867 0 0 0
418 1 17.29329005075156 4.71599887820027 14.14896983062587 0 0 0
419 1 18.865105287891843 3.1440862356939494 12.576881151949257 0 0 0
420 1 20.436867943197996 4.716238651648881 14.148981130782596 0 0 0
421 1 22.008531690278 6.288270672725125 12.576881126186633 -1 0 0
422 1 1.5710723975499197 7.860352485812147 14.148988799632235 0 0 0
423 1 3.1416717512063297 6.286823042802327 12.576881125256973 0 0 0
424 1 4.712259604238214 7.857559953055292 14.149979245602577 0 0 0
425 1 6.283046688317409 6.280934233168188 12.57688102618845 0 0 0
426 1 7.844591968395838 7.838803428748052 14.16021211962217 0 0 0
427 1 9.430393251641853 6.268773878881337 12.576880924279125 0 0 0
428 1 11.004980187928899 7.847717151461109 14.163444461978598 0 0 0
429 1 12.574715740305882 6.278205035712957 12.576880867794118 0 0 0
430 1 14.150247275244118 7.857160909281927 14.152060108377643 0 0 0
431 1 15.720088987445175 6.287733521273717 12.57688090625899 0 0 0
432 1 17.29262359044154 7.860718206396734 14.14844817387787 0 0 0
433 1 18.86480696222406 6.288323428159845 12.576881032787691 0 0 0
434 1 20.437009447954832 7.860636600407328 14.148814964583018 0 0 0
435 1 22.009256104097403 9.432775458298355 12.57688102773621 -1 0 0
436 1 1.5726209667173787 11.004770243904861 14.148942694435659 0 0 0
437 1 3.1438628761577836 9.4327790699263 12.576881025463498 0 0 0
438 1 4.71967668279106 11.004770100837694 14.148811429900281 0 0 0
439 1 6.283909211822957 9.428302190477485 12.576880940120747 0 0 0