LAMMPS data file via write_data, version 2 Aug 2023, timestep = 37, units = metal

691 atoms
3 atom types

0 22.009546999999998 xlo xhi
0 22.009546999999998 ylo yhi
0 22.009546999999998 zlo zhi

Masses

1 183.84
2 1.008
3 4.0026

Atoms # atomic

1 1 0.0026125353558964113 0.0008164154981850747 0.0019413664701803414 0 0 0
2 1 1.5743783390989305 1.572084582407914 1.573886934847667 0 0 0
3 1 3.1458806239995143 0.0006510050795725105 0.0028664157654036855 0 0 0
4 1 4.718331934187779 1.5719723328207948 1.5745443311708491 0 0 0
5 1 6.29044959841502 0.0002775524408897408 0.0030196648062935524 0 0 0
6 1 7.863145677093857 1.5716029683346433 1.574390942012184 0 0 0
7 1 9.435639886793817 22.009485212600012 0.002583092569086815 0 -1 0
8 1 11.008527930110093 1.5712902010644398 1.57370489282447 0 0 0
9 1 12.58097326346549 22.00938763274963 0.0018909799618853458 0 -1 0
10 1 14.153969750808962 1.5711513096202125 1.5729127877878626 0 0 0
11 1 15.725912673592319 3.06833649542841e-05 0.0013426142423352161 0 0 0
12 1 17.29885905284758 1.5713026540052037 1.5724732257475926 0 0 0
13 1 18.869817571844113 0.0004856281329748478 0.0013110136344182735 0 0 0
14 1 20.441702612249276 1.5720179814721762 1.5728767420425493 0 0 0
15 1 0.0027350649791486716 3.1434192698366727 0.002514174554504617 0 0 0
16 1 1.5744234065717622 4.715614649637807 1.5737299042093438 0 0 0
17 1 3.1450570520152015 3.1425760957979367 0.004295400554110014 0 0 0
18 1 4.717736858970815 4.714947867378106 1.574867790681657 0 0 0
19 1 6.28990255195506 3.1420737431011863 0.004755691271925927 0 0 0
20 1 7.862898711552346 4.714281041614898 1.5748444463747362 0 0 0
21 1 9.43560227445928 3.1415734037992684 0.004300913162331563 0 0 0
22 1 11.008953874950024 4.713719977060512 1.5736690837983107 0 0 0
23 1 12.581627550740828 3.1414494263919375 0.0033453285879682516 0 0 0
24 1 14.155336818827557 4.713436975851124 1.572172399556389 0 0 0
25 1 15.727264247278004 3.1416017443945363 0.0024486343661862535 0 0 0
26 1 17.30025904862201 4.7140309147581645 1.5717045743810965 0 0 0
27 1 18.87068498336626 3.1427428260248282 0.0017594393239919771 0 0 0
28 1 20.44223115196253 4.715514125636977 1.572708281690843 0 0 0
29 1 0.003041028875258976 6.288004261540861 0.002306038764048124 0 0 0
30 1 1.5746342666721174 7.8607016358269775 1.5732100419782014 0 0 0
31 1 3.145286974747896 6.287611596442064 0.004087995781498422 0 0 0
32 1 4.718123631677929 7.860638442130363 1.5738901270623749 0 0 0
33 1 6.289497760415445 6.2864817332503025 0.006442807772903829 0 0 0
34 1 7.86373877561182 7.86048148684678 1.5746432543405522 0 0 0
35 1 9.435452313731265 6.285403327058786 0.005687097354086834 0 0 0
36 1 11.008802000082722 7.859710970414257 1.5726067158228112 0 0 0
37 1 12.582163964112734 6.28555512551849 0.004228936052118898 0 0 0
38 1 14.156141398449506 7.859056095050567 1.5701073316871565 0 0 0
39 1 15.728343592872841 6.28588191392795 0.002304667845611503 0 0 0
40 1 17.30065579843777 7.859651491369385 1.5707726440347765 0 0 0
41 1 18.871085148407122 6.287364632492125 0.0014486199253458325 0 0 0
42 1 20.442482453568775 7.86050169260226 1.5721112768924763 0 0 0
43 1 0.0030956196940136642 9.433318439056858 0.001685022284242365 0 0 0
44 1 1.5745466378084378 11.006204741836394 1.5724176623257284 0 0 0
45 1 3.145436509345349 9.433255252719427 0.003127673367047654 0 0 0
46 1 4.717908475804298 11.0062080508104 1.5725923335759555 0 0 0
47 1 6.290075073960975 9.433153821343671 0.004152534859595329 0 0 0
48 1 7.863799168600492 11.005857995193592 1.5728863449319161 0 0 0
49 1 9.43572532943255 9.43271993829469 0.0037011934278990822 0 0 0
50 1 11.00908292087848 11.005676350629367 1.5702113298403737 0 0 0
51 1 12.582071008142446 9.432434831788548 0.0021228305125016674 0 0 0
52 1 14.15657282474404 11.006033077691164 1.5684478782177909 0 0 0
53 1 15.728317798071894 9.432425580884969 0.0008752846854041905 0 0 0
54 1 17.300678893470874 11.006059386945033 1.569755327296598 0 0 0
55 1 18.871042183814943 9.433004127639565 0.0006682857165651173 0 0 0
56 1 20.442413574994934 11.00611758912768 1.5713942343228189 0 0 0
57 1 0.0029655358198045784 12.578747261434108 0.0010350440414617626 0 0 0
58 1 1.5743827517441373 14.151675018157356 1.5717545049614965 0 0 0
59 1 3.1455060812347355 12.578783715199181 0.002066868264824182 0 0 0
60 1 4.718009803020892 14.151704509337726 1.5713003323104398 0 0 0
61 1 6.290431650310907 12.578124879491469 0.0021536865360184433 0 0 0
62 1 7.8634804683895 14.151767950489303 1.5705917395468634 0 0 0
63 1 9.435834596112471 12.57776160081607 0.0006683961768863398 0 0 0
64 1 11.008933459979957 14.152112903594558 1.5687971331570651 0 0 0
65 1 12.5814546824926 12.577868667783369 22.008925809320715 0 0 -1
66 1 14.155624543737913 14.152523844179388 1.5672234636286957 0 0 0
67 1 15.727824423971446 12.578888934249138 22.00900802547442 0 0 -1
68 1 17.30023703600827 14.152225601787112 1.5691822251937435 0 0 0
69 1 18.870749422084558 12.578764908771147 22.00946669455935 0 0 -1
70 1 20.442139249506866 14.15166696076202 1.5709822588722175 0 0 0
71 1 0.002751067364629354 15.723765029280555 0.0007648526716242763 0 0 0
72 1 1.5740658921514008 17.29673419770428 1.5717529620541584 0 0 0
73 1 3.145503268651105 15.723995457130206 0.0016132807220148667 0 0 0
74 1 4.717747429482241 17.29705339896623 1.5719254621675782 0 0 0
75 1 6.290018113035973 15.724159085704333 0.0021289243197389037 0 0 0
76 1 7.86303751994286 17.29706255456361 1.5714524113727208 0 0 0
77 1 9.43561325675764 15.724193603103876 0.0009214072481208238 0 0 0
78 1 11.008747300529228 17.2972096214219 1.5703907387794585 0 0 0
79 1 12.581335924849203 15.724046837641149 22.009196288046816 0 0 -1
80 1 14.154608514431688 17.297469726004977 1.5693702375083987 0 0 0
81 1 15.727049268213289 15.724427315762314 22.008689272510786 0 0 -1
82 1 17.299672445525168 17.297507117011442 1.5695799532097856 0 0 0
83 1 18.870312944571026 15.723929933770426 22.00925706630629 0 0 -1
84 1 20.441759506145708 17.296508047523464 1.5711928947847438 0 0 0
85 1 0.0025013890947522006 18.867997696025427 0.001187740502847415 0 0 0
86 1 1.5743201031248153 20.439922105079866 1.5729711401677073 0 0 0
87 1 3.1454292462391074 18.868339977306164 0.0021848373603544067 0 0 0
88 1 4.718347182678769 20.439754867674644 1.5733383392532665 0 0 0
89 1 6.290282703756577 18.86802143243606 0.002087426297073808 0 0 0
90 1 7.8631768887870725 20.439535736037378 1.5730545982016702 0 0 0
91 1 9.435613718513938 18.867783490949254 0.0013652061309971963 0 0 0
92 1 11.008422125119584 20.439446681036948 1.5723773187254755 0 0 0
93 1 12.58102299669291 18.867741189890697 0.000556363688739516 0 0 0
94 1 14.153694402699394 20.43953355460956 1.5717553538063196 0 0 0
95 1 15.726167790730315 18.868008168139223 0.00012688814503784864 0 0 0
96 1 17.298458114120834 20.439763208590186 1.5715694775744815 0 0 0
97 1 18.87003577402164 18.868077858479435 0.0002995232923433518 0 0 0
98 1 20.44146888133718 20.439803004465627 1.57219939053516 0 0 0
99 1 0.003161093709454787 0.0016970708687726224 3.144609648482454 0 0 0
100 1 1.5744190399499032 1.572708929583841 4.716725489647205 0 0 0
101 1 3.1463427465211895 0.0017413835830875242 3.144991334570049 0 0 0
102 1 4.718258896701464 1.5724855513380467 4.716859678758478 0 0 0
103 1 6.290820682423633 0.0016187310100193916 3.145067853772828 0 0 0
104 1 7.863244491994272 1.5723594699929029 4.716640914418794 0 0 0
105 1 9.43586360132336 0.0013983289758799043 3.1445762218710884 0 0 0
106 1 11.008793697246876 1.571824538932043 4.715874462369665 0 0 0
107 1 12.581260838156217 0.00122277553356799 3.1438981150191654 0 0 0
108 1 14.154751248520949 1.5710893104409134 4.715118496778861 0 0 0
109 1 15.726582543967965 0.0011934484625171849 3.1434228791637437 0 0 0
110 1 17.29964941801961 1.5715493005697239 4.715239073764055 0 0 0
111 1 18.870552961217406 0.0014528980290067447 3.1437985694965755 0 0 0
112 1 20.441891504035333 1.5726448083159024 4.716436830055427 0 0 0
113 1 0.0034053937957292716 3.143546648246839 3.1443806044782017 0 0 0
114 1 1.573295817764131 4.714329683899433 4.715041770489522 0 0 0
115 1 3.145734806874068 3.1431459183253017 3.1448933382327424 0 0 0
116 1 4.715707178438357 4.712725262228316 4.713859263019172 0 0 0
117 1 6.2905738371812365 3.1432330037310234 3.1454309027711433 0 0 0
118 1 7.862686812678846 4.713393753563324 4.714607254953394 0 0 0
119 1 9.435937012453834 3.1426484293513064 3.1447762658303375 0 0 0
120 1 11.009922147558514 4.712022177278342 4.712769761387211 0 0 0
121 1 12.581996656922973 3.142011749080169 3.143603200662572 0 0 0
122 1 14.159304943176243 4.709385601997577 4.709823184182796 0 0 0
123 1 15.728262646251725 3.1413922586234193 3.1424981971612382 0 0 0
124 1 17.303760997297445 4.711253550530211 4.711558692072849 0 0 0
125 1 18.871776788330596 3.1425613827981937 3.143209322987088 0 0 0
126 1 20.44303927968086 4.714689503907277 4.715054873455046 0 0 0
127 1 0.0038340098910884584 6.287913059736795 3.1438972771883646 0 0 0
128 1 1.5738538095715235 7.860083324104458 4.714557151069667 0 0 0
129 1 3.14570959085131 6.287514289726079 3.1438036417854787 0 0 0
130 1 4.716279699586891 7.859226009379689 4.711909056446569 0 0 0
131 1 6.290463697595523 6.287241100764087 3.1436863808566873 0 0 0
132 1 7.86459240366773 7.8598484822647 4.711203112582256 0 0 0
133 1 9.436229524660291 6.28576945896332 3.142449071728714 0 0 0
134 1 11.010552867314445 7.857704674643021 4.70623411063651 0 0 0
135 1 12.583470684716078 6.285163972221986 3.1397897109943598 0 0 0
136 1 14.162204403664486 7.855050802932759 4.702833900388714 0 0 0
137 1 15.73045270761948 6.284785458514842 3.13924695212414 0 0 0
138 1 17.30430698623916 7.858150441718534 4.710298112945267 0 0 0
139 1 18.872522984855948 6.286974739823445 3.1423175976793813 0 0 0
140 1 20.44350935729639 7.859964346372975 4.714106957837796 0 0 0
141 1 0.003916793490186 9.433352894603221 3.14316363845802 0 0 0
142 1 1.5735224631659304 11.00641725758079 4.713788182784564 0 0 0
143 1 3.1457050238408035 9.433383494576365 3.143147867942411 0 0 0
144 1 4.715223837126302 11.006906648088394 4.711428636804606 0 0 0
145 1 6.290667126623463 9.43396495222579 3.1426744982938954 0 0 0
146 1 7.864106310126837 11.006754745091612 4.714387227801123 0 0 0
147 1 9.437008210525935 9.434061673702585 3.1448367506739765 0 0 0
148 1 11.01292916653639 11.00679725824199 4.707850137412214 0 0 0
149 1 12.584715578503898 9.43285319095383 3.1365101029110205 0 0 0
150 1 14.163433809368469 11.006971494088598 4.702659088734437 0 0 0
151 1 15.730991652142693 9.432327285627098 3.1380974596228195 0 0 0
152 1 17.30458150314132 11.006386453579172 4.709319133254439 0 0 0
153 1 18.872765678172208 9.432974065203549 3.1414075942432955 0 0 0
154 1 20.443495203577243 11.00627046914827 4.713299041964193 0 0 0
155 1 0.003686225207120093 12.579205534302309 3.14251305905163 0 0 0
156 1 1.5728722684600704 14.15317950280263 4.712904315419084 0 0 0
157 1 3.1453661678719413 12.579483110492006 3.142045081964482 0 0 0
158 1 4.714130502670683 14.155884247348506 4.708093399884515 0 0 0
159 1 6.290584881523312 12.579249706929197 3.1406149198331517 0 0 0
160 1 7.862705572445277 14.156273739080039 4.706184457727773 0 0 0
161 1 9.436965096002782 12.579618689689621 3.1397102134769033 0 0 0
162 1 11.011323691041575 14.157757899889212 4.703600337989891 0 0 0
163 1 12.58436491843398 12.580211035075216 3.134628158832817 0 0 0
164 1 14.163490832400864 14.15973776681841 4.699635440245608 0 0 0
165 1 15.73092792899421 12.58030329004603 3.1370560590583483 0 0 0
166 1 17.30444215573809 14.154748566572927 4.708963190642555 0 0 0
167 1 18.87264083141378 12.579453868206336 3.1407776084983845 0 0 0
168 1 20.44313908829706 14.15277126017171 4.713035876152516 0 0 0
169 1 0.0032585999293535113 15.724861315570829 3.142304399807612 0 0 0
170 1 1.5724288534834845 17.299449464484056 4.712948504454041 0 0 0
171 1 3.144768756124446 15.725903800260658 3.1410575655793496 0 0 0
172 1 4.715224079144831 17.30126026814812 4.711117036642253 0 0 0
173 1 6.289766165422919 15.726290416323087 3.140046874800517 0 0 0
174 1 7.8624655121027045 17.30080454971444 4.711383226822594 0 0 0
175 1 9.436229353868157 15.726947964036347 3.139136420812932 0 0 0
176 1 11.009759309129022 17.301608169137147 4.710295795016621 0 0 0
177 1 12.583304696749925 15.727429359352035 3.137104929376831 0 0 0
178 1 14.158303602051904 17.30309863102278 4.708259941577737 0 0 0
179 1 15.730507128236392 15.727921271404602 3.136622554120849 0 0 0
180 1 17.30350276895649 17.301781444598618 4.70975748202937 0 0 0
181 1 18.872210863270457 15.725494555853873 3.140773731289096 0 0 0
182 1 20.44253316757249 17.298474338191816 4.713524207607522 0 0 0
183 1 0.002998137119639437 18.869331992452445 3.143064903218291 0 0 0
184 1 1.5739884558344281 20.441407780624285 4.715675303777623 0 0 0
185 1 3.145464394191543 18.869881402716295 3.143009930099885 0 0 0
186 1 4.71794633667054 20.441769049900998 4.715612710658266 0 0 0
187 1 6.290409496930818 18.869700434835615 3.1430802093019956 0 0 0
188 1 7.863134628346004 20.441602605018318 4.715350432904929 0 0 0
189 1 9.435906073420492 18.869780074369938 3.142474170411713 0 0 0
190 1 11.008738683932966 20.441680955961303 4.714731743148892 0 0 0
191 1 12.581759812049375 18.870057398115193 3.1415866077765413 0 0 0
192 1 14.154598693339583 20.441886630871892 4.714172265942089 0 0 0
193 1 15.727708261846939 18.870493651308138 3.1409417200651375 0 0 0
194 1 17.29957784027257 20.441740203287964 4.714342471064082 0 0 0
195 1 18.871362437904413 18.869877084823084 3.141914563052929 0 0 0
196 1 20.441676997112552 20.440871419305964 4.715656364893399 0 0 0
197 1 0.002985057319251342 0.0023673341245239806 6.288721742915074 0 0 0
198 1 1.5741222316819121 1.5731755888010137 7.861265585861728 0 0 0
199 1 3.14599673640536 0.00293220987076193 6.288621852602095 0 0 0
200 1 4.718285272295443 1.5731515536355225 7.8616707715455005 0 0 0
201 1 6.290706751936049 0.0030747113551789695 6.288645278836702 0 0 0
202 1 7.863575727384445 1.5732945939429674 7.861793098042211 0 0 0
203 1 9.435858614245735 0.002786533085556479 6.288132139354443 0 0 0
204 1 11.008385111679976 1.5723774754649624 7.861160088375373 0 0 0
205 1 12.581393558805436 0.0024593116861324504 6.287738846445337 0 0 0
206 1 14.154312790191247 1.5716711458634256 7.860669010664244 0 0 0
207 1 15.726980416931514 0.0024233575047353556 6.287474201591504 0 0 0
208 1 17.298750852812343 1.5723627732725385 7.860742403450117 0 0 0
209 1 18.87029378642708 0.0021587437856898438 6.288293152904519 0 0 0
210 1 20.44126979274403 1.5730062868579744 7.8611129023162984 0 0 0
211 1 0.0031987912240062756 3.1439723020935078 6.288724135540109 0 0 0
212 1 1.5731101989789475 4.714866138569604 7.860796337466724 0 0 0
213 1 3.1451773478239025 3.1427801854281165 6.288193471235284 0 0 0
214 1 4.714814707432805 4.710865285010278 7.858880726886055 0 0 0
215 1 6.290061139715254 3.1419984281753175 6.2882197088841165 0 0 0
216 1 7.862653353128003 4.70956460085517 7.859264293587401 0 0 0
217 1 9.436008195467227 3.141494877830081 6.287162808334659 0 0 0
218 1 11.010366927700982 4.706622505986391 7.85694115370428 0 0 0
219 1 12.583054978534731 3.139598846464977 6.286147446196376 0 0 0
220 1 14.160293873337626 4.705531993367123 7.855534390248895 0 0 0
221 1 15.729413865365368 3.1399229804798314 6.2858528812202685 0 0 0
222 1 17.301806116326073 4.71284880579631 7.85930378278949 0 0 0
223 1 18.871417370906485 3.143094927634479 6.287962130724704 0 0 0
224 1 20.44205253093257 4.715264980960923 7.8606953545934575 0 0 0
225 1 0.0027523704293002864 6.2868128216956185 6.286998309026077 0 0 0
226 1 1.569503208076007 7.858303641497453 7.85835430060405 0 0 0
227 1 3.1399981845182325 6.2828304242638096 6.283279305707813 0 0 0
228 1 4.6994247478267 7.845494846885188 7.84523026163429 0 0 0
229 1 6.2819455428512585 6.277986749166689 6.278059695405063 0 0 0
230 1 7.839297412457192 7.828780250036628 7.8294567026335935 0 0 0
231 1 9.436348053704508 6.279654508961347 6.279030371065315 0 0 0
232 1 11.039695848248861 7.820692046726737 7.818318979760676 0 0 0
233 1 12.594492343520384 6.2721671740953 6.271178458527871 0 0 0
234 1 14.192674674274876 7.827251848298515 7.824399700246636 0 0 0
235 1 15.741268090582922 6.275284113548113 6.27469496216775 0 0 0
236 1 17.310425901390843 7.8551810795985855 7.85373054521671 0 0 0
237 1 18.875093584899734 6.285225891908296 6.285015729601845 0 0 0
238 1 20.443332723288798 7.859377137136063 7.858952740974733 0 0 0
239 1 0.0029763956457129967 9.432884201244667 6.286028933949166 0 0 0
240 1 1.569039230852216 11.00616860866158 7.857484171004059 0 0 0
241 1 3.1416895128978855 9.432311887722795 6.283710268144461 0 0 0
242 1 4.702231372360855 11.007166508704902 7.851372767884272 0 0 0
243 1 6.286157316450524 9.43324553264926 6.276641648090109 0 0 0
244 1 7.836224306433511 11.02505769472188 7.858434734969061 0 0 0
245 1 9.439930428006525 9.435722567744529 6.294991989192586 0 0 0
246 1 11.054459444876544 11.027715248563592 7.839204021636549 0 0 0
247 1 12.595939364134576 9.428182642716836 6.260978100811588 0 0 0
248 1 14.181892198943789 11.00662008845553 7.835091332886454 0 0 0
249 1 15.739372906393022 9.429936266631207 6.275029956503284 0 0 0
250 1 17.309633073393538 11.006072427929665 7.852177019750433 0 0 0
251 1 18.87529235437719 9.432309565718848 6.28369181642933 0 0 0
252 1 20.443179075793488 11.006069177659272 7.857805273810766 0 0 0
253 1 0.002498798393745813 12.579785977021773 6.2853991263099545 0 0 0
254 1 1.567567055791685 14.155399476855111 7.856420500942375 0 0 0
255 1 3.140304103749819 12.581392754716926 6.282443983679928 0 0 0
256 1 4.696157648003958 14.17115211478278 7.840338118045182 0 0 0
257 1 6.282124399887939 12.586326521894865 6.271485423804531 0 0 0
258 1 7.8471419573671035 14.180433553488982 7.828281598940715 0 0 0
259 1 9.438830366476607 12.583468083225853 6.273295443133817 0 0 0
260 1 11.026320817074277 14.1829220850772 7.827860838127399 0 0 0
261 1 12.599098056188774 12.592045183793948 6.256385987877365 0 0 0
262 1 14.19353700741164 14.187809735769434 7.8212053343046515 0 0 0
263 1 15.73999884370563 12.58341189106822 6.274327964483098 0 0 0
264 1 17.310980676011685 14.157787778165131 7.852429154484296 0 0 0
265 1 18.875291023922525 12.580236208769474 6.283208577875357 0 0 0
266 1 20.44280355414541 14.153449574452463 7.857875904387849 0 0 0
267 1 0.0017593779974632013 15.72669996702989 6.2852530040362575 0 0 0
268 1 1.5707601447060382 17.300381963574022 7.8581351530263515 0 0 0
269 1 3.138251236339414 15.731986690419893 6.280091145884133 0 0 0
270 1 4.710363629943828 17.307522485224602 7.853263766082328 0 0 0
271 1 6.282389040597045 15.736168701139363 6.27511756849955 0 0 0
272 1 7.860383161563277 17.30778173209472 7.853704780734472 0 0 0
273 1 9.436444749977467 15.734918519516844 6.276578851660814 0 0 0
274 1 11.010425881502849 17.308464397163533 7.8538540224400135 0 0 0
275 1 12.590938996004793 15.739396039177148 6.271662151686608 0 0 0
276 1 14.162785836588704 17.311143521742043 7.851292441121785 0 0 0
277 1 15.741383557591664 15.73854086876988 6.272377189953614 0 0 0
278 1 17.30312207021603 17.30175632219276 7.856879289420072 0 0 0
279 1 18.874918980357 15.727942902195176 6.283497718913153 0 0 0
280 1 20.44164868195974 17.29876442982973 7.858997799004128 0 0 0
281 1 0.002373063910556113 18.87034114542792 6.287135400986349 0 0 0
282 1 1.5734030866635786 20.441812857015325 7.860385630698151 0 0 0
283 1 3.143519426629931 18.8728761139385 6.285551707295503 0 0 0
284 1 4.717074937214901 20.44371061035797 7.859984781976587 0 0 0
285 1 6.289030337949761 18.87364707111999 6.285306168695867 0 0 0
286 1 7.8627286650160295 20.444039869148913 7.859811649129402 0 0 0
287 1 9.43585269486275 18.873538102282335 6.284857362061999 0 0 0
288 1 11.00849535554297 20.443945744378784 7.859639844637586 0 0 0
289 1 12.582937949803386 18.874476924751935 6.284189233372059 0 0 0
290 1 14.155028537591667 20.44421826438253 7.859171231473033 0 0 0
291 1 15.730016495266392 18.874543105355727 6.283796926506144 0 0 0
292 1 17.298998599701495 20.44186628635028 7.8599924798847 0 0 0
293 1 18.871482451541663 18.87082189263453 6.286468025095201 0 0 0
294 1 20.441053795586452 20.44105032049912 7.860518685042261 0 0 0
295 1 0.0022439786248599825 0.0022887016764673762 9.433435095399435 0 0 0
296 1 1.5730678137517686 1.5726726150249395 11.006141635390598 0 0 0
297 1 3.1451774603281657 0.002891461674626058 9.433397048258659 0 0 0
298 1 4.716716756372593 1.5722207364191478 11.006395528566763 0 0 0
299 1 6.290496820769425 0.003907686757288385 9.43407818789283 0 0 0
300 1 7.863338807098486 1.574624935423866 11.007550381573402 0 0 0
301 1 9.435566669334188 0.004423631480042963 9.434016526637514 0 0 0
302 1 11.007684177274276 1.574972671735013 11.00752152123627 0 0 0
303 1 12.58088303771671 0.0037278717156644537 9.433765903702074 0 0 0
304 1 14.15402408930125 1.5720037965197713 11.006374321242694 0 0 0
305 1 15.726263192413226 0.002366777660830974 9.433271659685479 0 0 0
306 1 17.298059141165353 1.572235999468009 11.005908105340179 0 0 0
307 1 18.86954602415493 0.0020726385894235828 9.433305862942667 0 0 0
308 1 20.440404859078583 1.5727311063197567 11.005979342805754 0 0 0
309 1 0.002308982878402735 3.1439482992483816 9.433586106748669 0 0 0
310 1 1.5715363064143455 4.714225091942149 11.00631737620399 0 0 0
311 1 3.144675782939811 3.1431111012571433 9.433664596218078 0 0 0
312 1 4.713091952464865 4.710964683740048 11.006483172309093 0 0 0
313 1 6.29071939874939 3.143198219297846 9.435560959280297 0 0 0
314 1 7.864794770973478 4.7191529634202976 11.010562727425375 0 0 0
315 1 9.436125146191792 3.145467127139132 9.435393498071885 0 0 0
316 1 11.006069217218993 4.720832150027165 11.010230702162518 0 0 0
317 1 12.581250261548638 3.1413809439159017 9.434824728290788 0 0 0
318 1 14.157358204481877 4.711160357981897 11.006711693711937 0 0 0
319 1 15.727540522530768 3.1419616425408874 9.43326426462177 0 0 0
320 1 17.300059439525686 4.713644383185904 11.005748981537073 0 0 0
321 1 18.870247908220986 3.14350947165166 9.433343892374976 0 0 0
322 1 20.440656299614968 4.71511148465332 11.00597077533497 0 0 0
323 1 0.0017719996284696954 6.28721728392942 9.433425253218166 0 0 0
324 1 1.5693894414551002 7.858721721888821 11.006933380467274 0 0 0
325 1 3.1414140735830363 6.284910786275673 9.433353196688543 0 0 0
326 1 4.707149268734453 7.855307359590595 11.008301778112953 0 0 0
327 1 6.2823378743750435 6.275331983065418 9.430330153386036 0 0 0
328 1 7.841942203767826 7.859529193239017 10.995205492327834 0 0 0
329 1 9.43697642715439 6.286753153269523 9.428627185269555 0 0 0
330 1 11.018850797357052 7.8694387649854765 10.989244204657092 0 0 0
331 1 12.59103850690988 6.267400419893953 9.426982913597929 0 0 0
332 1 14.16331554418208 7.853058184277398 11.008092131825174 0 0 0
333 1 15.733158913670461 6.281996554821687 9.4314922822987 0 0 0
334 1 17.301636401316063 7.858265983491405 11.005532592819765 0 0 0
335 1 18.872012987818636 6.2865839461018895 9.43278193555263 0 0 0
336 1 20.44046241082123 7.859697855172198 11.005837620373377 0 0 0
337 1 0.00041790722496360403 9.432490985257248 9.432309788156909 0 0 0
338 1 1.5652365670981903 11.005785216410194 11.006145231628851 0 0 0
339 1 3.1334847095805203 9.42945645907643 9.42945732269884 0 0 0
340 1 4.688231045753379 11.004965765653536 11.0080041466575 0 0 0
341 1 6.251686454405269 9.39030081760407 9.38299663401144 0 0 0
342 1 7.448902763076258 11.020078708281103 11.004449979956279 0 0 0
343 1 9.453267589210997 9.378259801691565 9.223715378124178 0 0 0
344 1 11.3526340414449 10.989456941369195 10.705233087457762 0 0 0
345 1 12.664348739346508 9.341125185384435 9.338084534627544 0 0 0
346 1 14.165881391297855 11.00262561749451 10.981110948350198 0 0 0
347 1 15.748266176011638 9.42592323797747 9.421329194025834 0 0 0
348 1 17.30357260118218 11.0046167510635 11.00191128850276 0 0 0
349 1 18.874935410798187 9.432036481677438 9.430604654038575 0 0 0
350 1 20.4401157125859 11.005656980832105 11.005032798012463 0 0 0
351 1 22.008820501901262 12.57977654861097 9.431658610782076 -1 0 0
352 1 1.5650329457455028 14.15537119745989 11.005295018451687 0 0 0
353 1 3.129134566774847 12.583709056311191 9.428178879969737 0 0 0
354 1 4.692867267453597 14.164537614435236 11.00207178544253 0 0 0
355 1 6.237199074975092 12.629418871712714 9.38023206892657 0 0 0
356 1 7.808129915282084 14.175755830568596 10.960815689724745 0 0 0
357 1 9.440888499742378 12.662653798301797 9.339531692696935 0 0 0
358 1 11.04149302424178 14.207703915340833 10.956647240553158 0 0 0
359 1 12.67496129966249 12.673332771557087 9.33644119700939 0 0 0
360 1 14.176735804491639 14.167378867912186 10.999635309364598 0 0 0
361 1 15.750551772715822 12.585796497682948 9.42136701191339 0 0 0
362 1 17.306094719277336 14.15550177059594 11.003479030006694 0 0 0
363 1 18.875233916827447 12.579728586556708 9.430284077189976 0 0 0
364 1 20.44037413176323 14.153101573566396 11.004943090343303 0 0 0
365 1 2.6977371280353893e-05 15.726799022790143 9.431633911493352 0 0 0
366 1 1.5696792389015106 17.300018893030646 11.005090658639558 0 0 0
367 1 3.135814494549137 15.731878216626964 9.42885727441535 0 0 0
368 1 4.709737200631676 17.3052057314995 11.003704098165288 0 0 0
369 1 6.27159230965622 15.748790281287485 9.417041505869202 0 0 0
370 1 7.85836343387752 17.304726825642362 11.00329848942256 0 0 0
371 1 9.432281275235983 15.74267122336154 9.423758867174405 0 0 0
372 1 11.009150196996085 17.311284510995563 11.003995097375322 0 0 0
373 1 12.599316777032433 15.754017672688367 9.417114148328222 0 0 0
374 1 14.158178679938784 17.303840106158372 11.00523515088273 0 0 0
375 1 15.73772996271234 15.734293932185615 9.427198019327378 0 0 0
376 1 17.30059005244019 17.299740924144732 11.004901285401155 0 0 0
377 1 18.873071452984064 15.727227617393913 9.43099868957208 0 0 0
378 1 20.44015306069467 17.298184614799013 11.005225193834121 0 0 0
379 1 0.0014383634916735188 18.870228755658506 9.432619489647575 0 0 0
380 1 1.5725250979833891 20.441393498965322 11.005708853291779 0 0 0
381 1 3.1427492647581428 18.872654759408793 9.431834876790427 0 0 0
382 1 4.715919641581688 20.44302102436754 11.00552367057497 0 0 0
383 1 6.2876997039308575 18.875898973976472 9.43133818329937 0 0 0
384 1 7.862330619762009 20.443150478943764 11.005973711215637 0 0 0
385 1 9.434602325623034 18.87551708415536 9.430961116848302 0 0 0
386 1 11.007836779817207 20.44397929185847 11.00605459226368 0 0 0
387 1 12.583377817797892 18.877417706423653 9.430751884029712 0 0 0
388 1 14.154086464527275 20.442192409546635 11.005815145861979 0 0 0
389 1 15.728367556695003 18.872742571785615 9.431927520825772 0 0 0
390 1 17.298091345823845 20.44096890416193 11.005601207945942 0 0 0
391 1 18.87027531418236 18.87024296748125 9.432488334342372 0 0 0
392 1 20.440184632189162 20.440597099134923 11.005692396002514 0 0 0
393 1 0.001473344242736569 0.0017092100323995792 12.578466983201457 0 0 0
394 1 1.572220823073215 1.5716560110321238 14.15157925493854 0 0 0
395 1 3.1442670561842796 0.001936943004058869 12.578753201899167 0 0 0
396 1 4.7157872908212655 1.5699980789893906 14.152333306919862 0 0 0
397 1 6.289310251481634 0.002219195223809638 12.57877065237416 0 0 0
398 1 7.862233094459974 1.5687306580196776 14.152902157135275 0 0 0
399 1 9.435051800134191 0.002501428787016421 12.578964249424759 0 0 0
400 1 11.007936327328462 1.5689985037104717 14.152279762745568 0 0 0
401 1 12.580694089493178 0.001916883394877028 12.578656672450819 0 0 0
402 1 14.153797245916536 1.5703183913326262 14.151237390485294 0 0 0
403 1 15.72578769556114 0.001323080883149997 12.578415583879694 0 0 0
404 1 17.297716518061392 1.571428798436278 14.15094911384996 0 0 0
405 1 18.868859067974025 0.0014573123814335756 12.578301958911485 0 0 0
406 1 20.439826912126996 1.5721106402512859 14.150963291293914 0 0 0
407 1 0.001177616427288926 3.1433117674281585 12.578784676978566 0 0 0
408 1 1.569682358578501 4.712928936306271 14.15278040313519 0 0 0
409 1 3.142970514770563 3.1415853239575204 12.579424979553938 0 0 0
410 1 4.709708189721028 4.705931525560843 14.156268528552133 0 0 0
411 1 6.2878736263737 3.1394711121189425 12.579627474048406 0 0 0
412 1 7.857421613013783 4.696647198899135 14.160787729278667 0 0 0
413 1 9.43530113138579 3.145256752627063 12.581137861934796 0 0 0
414 1 11.011581077501026 4.699977222626634 14.159701840451692 0 0 0
415 1 12.58174928286129 3.1420813402587195 12.578995623756263 0 0 0
416 1 14.157899464943235 4.708956427735147 14.152826835791446 0 0 0
417 1 15.727285614209752 3.1416431909141256 12.578796653202392 0 0 0
418 1 17.299676806862607 4.713294693910603 14.151499808119864 0 0 0
419 1 18.86943881022205 3.1431971993907237 12.578523466958725 0 0 0
420 1 20.439706904680854 4.71468167647654 14.15139890125372 0 0 0
421 1 22.00932096207529 6.286534348722772 12.579109607000765 -1 0 0
422 1 1.5642828934428745 7.857257667331466 14.155068153230054 0 0 0
423 1 3.138037599775626 6.282504353225411 12.580484801876914 0 0 0
424 1 4.685116889785073 7.839873371612513 14.173094477860122 0 0 0
425 1 6.277859012131087 6.269765627465188 12.581626095476492 0 0 0
426 1 7.779800483188657 7.779220239243206 14.231631603779267 0 0 0
427 1 9.434446282338774 6.2991561986993485 12.599954823288178 0 0 0
428 1 11.080990970435574 7.791910409490611 14.23403722763214 0 0 0
429 1 12.585688900999036 6.281499032136893 12.578839891850777 0 0 0
430 1 14.175735048729422 7.846292286141852 14.160827105785238 0 0 0
431 1 15.731226332080325 6.2830272891674 12.578674791448918 0 0 0
432 1 17.302150028267842 7.858491979767614 14.150919615499532 0 0 0
433 1 18.870395188981576 6.286459247405485 12.578400845250059 0 0 0
434 1 20.43891376999524 7.859654839128906 14.151453112273503 0 0 0
435 1 22.007789943281335 9.432468923496 12.579336019610285 -1 0 0
436 1 1.5670734817720309 11.005469681647082 14.154280645037247 0 0 0
437 1 3.1329155398740625 9.428936955390506 12.584809733114422 0 0 0
438 1 4.7045950212180205 11.005222590932233 14.160278425625071 0 0 0
439 1 6.257179061657383 9.380415069038051 12.636747766245026 0 0 0