LAMMPS data file via write_data, version 2 Aug 2023, timestep = 22, units = metal

691 atoms
3 atom types

0 22.009546999999998 xlo xhi
0 22.009546999999998 ylo yhi
0 22.009546999999998 zlo zhi

Masses

1 183.84
2 1.008
3 4.0026

Atoms # atomic

1 1 0.0003054761724435637 22.008403401686742 22.008875579865762 0 -1 -1
2 1 1.5714169428929963 1.5697402720384876 1.57089117154393 0 0 0
3 1 3.1431055136449944 22.008402845131407 22.008910758985643 0 -1 -1
4 1 4.714977313349508 1.5695722315417935 1.570670771548117 0 0 0
5 1 6.287345933143049 22.008401322520847 22.008704016332967 0 -1 -1
6 1 7.859656080741343 1.5694956252837278 1.5704837900441782 0 0 0
7 1 9.432229094306695 22.008400302972166 22.008656637005707 0 -1 -1
8 1 11.004901774109637 1.5694380007508701 1.5704303140670206 0 0 0
9 1 12.577456618786835 22.0084002772914 22.008699183545644 0 -1 -1
10 1 14.150302158410803 1.569351399349735 1.570529705884793 0 0 0
11 1 15.722650287242768 22.00840096669846 22.0088314660297 0 -1 -1
12 1 17.29532257772296 1.5693755892190455 1.5707603555335328 0 0 0
13 1 18.867177992186743 22.008402391535647 22.009047097125535 0 -1 -1
14 1 20.438969047107648 1.569683607356721 1.57095156793396 0 0 0
15 1 0.0004154205346290626 3.14126200534131 22.009226714742276 0 0 -1
16 1 1.5712982299018108 4.7132410726230365 1.57107502119993 0 0 0
17 1 3.142178262299447 3.1404665651954238 22.009545409547123 0 0 -1
18 1 4.71353576570324 4.711828791856761 1.5707176376460839 0 0 0
19 1 6.2866931095589 3.1402440772219897 22.009310464554332 0 0 -1
20 1 7.8589631749593165 4.711519864724911 1.5703997590401915 0 0 0
21 1 9.432064559352177 3.140139503373449 22.009206378220007 0 0 -1
22 1 11.005129012574121 4.711310175529372 1.5703160446686828 0 0 0
23 1 12.57785804761572 3.1399535568111574 22.009295264047555 0 0 -1
24 1 14.151518838715969 4.711093741579039 1.5704799769536066 0 0 0
25 1 15.72363386242847 3.139776097982537 22.00953431732448 0 0 -1
26 1 17.297286279108615 4.71128918195444 1.5708528301628184 0 0 0
27 1 18.868306325153327 3.1401750343840256 9.880434503476616e-05 0 0 0
28 1 20.43944236757458 4.713064121317341 1.5710634416681908 0 0 0
29 1 0.000557055197712766 6.285562807359517 22.00947203226867 0 0 -1
30 1 1.5713372811318678 7.858147601973454 1.5712701908503581 0 0 0
31 1 3.1418284320279715 6.284984800025939 0.0004899972840184435 0 0 0
32 1 4.713423997821075 7.857459082997678 1.571069613152317 0 0 0
33 1 6.284789472901208 6.283131719786762 0.001935249981751609 0 0 0
34 1 7.857948343835313 7.856121218056345 1.5704072368765662 0 0 0
35 1 9.431658682704049 6.282910553112982 0.0014096223398130609 0 0 0
36 1 11.005473188587262 7.855731434732915 1.5702047649997144 0 0 0
37 1 12.578934557556698 6.282614434295781 0.001669960496519709 0 0 0
38 1 14.153421575932622 7.855564607119718 1.5706162732314666 0 0 0
39 1 15.726425961334726 6.282244245239478 0.002439286890775937 0 0 0
40 1 17.297934385593113 7.856955308620436 1.5709777375955327 0 0 0
41 1 18.86903468146731 6.284608810870408 0.0004465972861933832 0 0 0
42 1 20.439690884897434 7.858007152917303 1.571183852190421 0 0 0
43 1 0.0006074476126092763 9.430838211440356 0.00014509882311581108 0 0 0
44 1 1.5713622363143074 11.003629809397797 1.5713572656798116 0 0 0
45 1 3.141774674027942 9.430643676040818 0.0007836236617523262 0 0 0
46 1 4.71343339920692 11.00362797355139 1.5712601464225795 0 0 0
47 1 6.284840336869138 9.43011626081497 0.002106257206923757 0 0 0
48 1 7.85800450015332 11.003626271832323 1.5706193594702362 0 0 0
49 1 9.43114000667146 9.42912323582932 0.003855799931204501 0 0 0
50 1 11.00571469931073 11.003625236388103 1.5701989981572368 0 0 0
51 1 12.580397526499722 9.428895346109417 0.004804402613059446 0 0 0
52 1 14.153798903201652 11.003626496965964 1.570710599017749 0 0 0
53 1 15.72683215059886 9.429678388611629 0.002446570423929789 0 0 0
54 1 17.298080591715326 11.003628506314346 1.5710283791785538 0 0 0
55 1 18.86923038155279 9.430484554566249 0.0006119522021801015 0 0 0
56 1 20.439746529547953 11.003630064656369 1.5712331285483891 0 0 0
57 1 0.0006073855136314885 12.576422361505958 0.00014554044734419467 0 0 0
58 1 1.5713376542091413 14.149111782344596 1.5712707529284398 0 0 0
59 1 3.1417751519120096 12.57661458271725 0.0007840044358818491 0 0 0
60 1 4.713424964224196 14.149797235931265 1.5710696994150064 0 0 0
61 1 6.284840800756454 12.577137660321128 0.0021066249227523048 0 0 0
62 1 7.857950192703849 14.15113079873301 1.5704060480504183 0 0 0
63 1 9.43114119686579 12.57812640364859 0.003853096562601365 0 0 0
64 1 11.005473566678726 14.151518068720485 1.570202368025766 0 0 0
65 1 12.58039664564914 12.578354153554288 0.004800170661111368 0 0 0
66 1 14.153419793354985 14.151687372170318 1.5706139279704108 0 0 0
67 1 15.726831223447292 12.57757644411851 0.0024455010124256565 0 0 0
68 1 17.29793296510167 14.150301445266791 1.570977237843412 0 0 0
69 1 18.869229696278595 12.576774478725397 0.0006120742493280869 0 0 0
70 1 20.439690297275106 14.149252503020657 1.5711844723689234 0 0 0
71 1 0.0005568443546237518 15.721697091250686 22.009472931825066 0 0 -1
72 1 1.5712986440638734 17.29401778181955 1.571075758819596 0 0 0
73 1 3.1418294507453686 15.722273337268282 0.0004907694784960471 0 0 0
74 1 4.7135369210477345 17.295427899996458 1.5707176227461324 0 0 0
75 1 6.284791953023992 15.724122226668404 0.0019352999064921545 0 0 0
76 1 7.858965078271793 17.29573359052061 1.5703984406878353 0 0 0
77 1 9.431661100863861 15.724339390643472 0.0014070419965178866 0 0 0
78 1 11.005129483835313 17.295942007607668 1.5703140005595129 0 0 0
79 1 12.578933092682883 15.724635192741344 0.0016662330840902019 0 0 0
80 1 14.151517142608183 17.296159235528513 1.5704781920976965 0 0 0
81 1 15.726422725593956 15.725008969247675 0.0024370505861603365 0 0 0
82 1 17.297284530914975 17.295967034968555 1.5708522267563787 0 0 0
83 1 18.869032926496526 15.72264927840671 0.00044680672818871734 0 0 0
84 1 20.439441677699307 17.29419464579808 1.5710640611238205 0 0 0
85 1 0.00041514686885941754 18.86599720465093 22.00922734845288 0 0 -1
86 1 1.5714168468727494 20.437518905540426 1.570891464085676 0 0 0
87 1 3.1421785684636783 18.866791961318754 22.009546397280207 0 0 -1
88 1 4.714977725266283 20.437684889235904 1.570670749107625 0 0 0
89 1 6.286694690232459 18.867011096397572 22.009310446883916 0 0 -1
90 1 7.859656720831778 20.437759246923854 1.5704833744711757 0 0 0
91 1 9.432065740317425 18.86711315170127 22.009205322453326 0 0 -1
92 1 11.004901920257865 20.437816076259086 1.5704297037797212 0 0 0
93 1 12.577857448437472 18.867298862535648 22.00929384154069 0 0 -1
94 1 14.15030156947488 20.437903153161304 1.5705291761784983 0 0 0
95 1 15.723632028738047 18.867478117840665 22.009533502416655 0 0 -1
96 1 17.295321942636736 20.43788094998222 1.5707601417746506 0 0 0
97 1 18.86830521521449 18.867082566484296 9.919656451776083e-05 0 0 0
98 1 20.43896893997281 20.43757517823656 1.5709518295630391 0 0 0
99 1 0.00033316769733074045 22.008403250763262 3.1425686123024414 0 -1 0
100 1 1.571111568070968 1.5696224689268725 4.714009989663742 0 0 0
101 1 3.14304157972761 22.008402813804302 3.1422198187010792 0 -1 0
102 1 4.714447682860634 1.569069212427644 4.713402987479026 0 0 0
103 1 6.287293971562475 22.008401671592143 3.141998825220954 0 -1 0
104 1 7.859485513415593 1.5690279064419508 4.713171541121291 0 0 0
105 1 9.432274835582774 22.0084010704895 3.141802281314866 0 -1 0
106 1 11.004973321514283 1.5689983305724176 4.71299107166403 0 0 0
107 1 12.577586927236396 22.008401000438884 3.1418110392147347 0 -1 0
108 1 14.150568475262718 1.5688509824259878 4.713161556791129 0 0 0
109 1 15.722780818830831 22.008401416725246 3.1420062240974134 0 -1 0
110 1 17.295805471355752 1.5688542025031258 4.713381514710393 0 0 0
111 1 18.867235036118345 22.00840252014729 3.142244450766991 0 -1 0
112 1 20.438899083522738 1.5696058090947689 4.71413880066908 0 0 0
113 1 0.0004574703440866939 3.1413059321782235 3.142377113333766 0 0 0
114 1 1.570680705223319 4.712821547515871 4.7135315211393 0 0 0
115 1 3.1421088187888033 3.14042469582411 3.1416549281795128 0 0 0
116 1 4.711577018479956 4.709951867408155 4.710415716379661 0 0 0
117 1 6.286598163211818 3.140077859446901 3.1413314896476776 0 0 0
118 1 7.858213427998743 4.709814947674237 4.7103977503067735 0 0 0
119 1 9.432099384458382 3.1399423686392067 3.1411203136021064 0 0 0
120 1 11.00531638425037 4.7096961768214305 4.710091948130884 0 0 0
121 1 12.57802811092984 3.139782861016384 3.141108062118849 0 0 0
122 1 14.152595006716355 4.709207623847349 4.710162551451704 0 0 0
123 1 15.723811194905135 3.13968634767932 3.141298663908588 0 0 0
124 1 17.29917456917545 4.709414706475509 4.710504681349924 0 0 0
125 1 18.8683998850746 3.1401859113172232 3.1417461319987066 0 0 0
126 1 20.43982073549179 4.712636456764027 4.71357247582937 0 0 0
127 1 0.0006845695059081392 6.285652508593628 3.142438846699705 0 0 0
128 1 1.5709338234568342 7.858086997843946 4.71362732067599 0 0 0
129 1 3.141949400197166 6.285079942286762 3.141759667968415 0 0 0
130 1 4.712024183115332 7.856907468224761 4.711036488225529 0 0 0
131 1 6.284635027032767 6.282897605439364 3.139158583295928 0 0 0
132 1 7.855364152850038 7.85333059362449 4.703886218989317 0 0 0
133 1 9.431697556597356 6.282600923742175 3.1390053865067227 0 0 0
134 1 11.005909928887066 7.853480539015576 4.704209771479744 0 0 0
135 1 12.579197618401771 6.28232225429195 3.138913396316801 0 0 0
136 1 14.156730252948783 7.852420719992159 4.703323947247348 0 0 0
137 1 15.7265767684086 6.2822073545067845 3.1390758205530633 0 0 0
138 1 17.299644665038734 7.856143861568519 4.710573552125531 0 0 0
139 1 18.86913618917647 6.284652638052268 3.1416551963071297 0 0 0
140 1 20.440084463421755 7.857888980463063 4.713537498542189 0 0 0
141 1 0.0007892925666332934 9.430881887414392 3.1424526038700424 0 0 0
142 1 1.571043076073165 11.00362894984403 4.7136026884383995 0 0 0
143 1 3.142041654243288 9.430717942775084 3.1419383673290655 0 0 0
144 1 4.712308679522709 11.003626967347172 4.711260609339007 0 0 0
145 1 6.284919526931007 9.430126710029008 3.139853780226128 0 0 0
146 1 7.856452014852178 11.00362596881113 4.705901854790602 0 0 0
147 1 9.431182532022829 9.429062752046164 3.1363468634060903 0 0 0
148 1 11.006590296484452 11.003624412129495 4.697403579186317 0 0 0
149 1 12.580628286731372 9.428783334226024 3.1360622625111407 0 0 0
150 1 14.156287417608741 11.003625881660005 4.704294250586951 0 0 0
151 1 15.726942669753884 9.429680084788016 3.13932395597763 0 0 0
152 1 17.299529045283524 11.003627238242723 4.7105293583420975 0 0 0
153 1 18.869330631084658 9.430514812682965 3.1416650314407324 0 0 0
154 1 20.440088630815545 11.00362906041196 4.713452174993297 0 0 0
155 1 0.0007892890290759339 12.576377579858418 3.1424529198457605 0 0 0
156 1 1.5709339645580664 14.149171137734108 4.713627322436929 0 0 0
157 1 3.142041976931223 12.576539461611304 3.141938488516571 0 0 0
158 1 4.712024871611189 14.150347609490279 4.711035310529486 0 0 0
159 1 6.28491971486264 12.577127066204612 3.1398528565407187 0 0 0
160 1 7.855367034111051 14.153919282011845 4.7038834293121585 0 0 0
161 1 9.431183414402186 12.578187389723343 3.1363470398927777 0 0 0
162 1 11.005910168342027 14.153766518140484 4.704210736088027 0 0 0
163 1 12.580627851059296 12.578466845444833 3.136062159111915 0 0 0
164 1 14.156727679586929 14.15482905498016 4.703322365710201 0 0 0
165 1 15.726942255447788 12.57757411416692 3.1393231579597414 0 0 0
166 1 17.299643779494502 14.151111121846757 4.710572701681487 0 0 0
167 1 18.869330206450712 12.57674310735909 3.14166514070213 0 0 0
168 1 20.44008407447579 14.149369220451238 4.713537854369824 0 0 0
169 1 0.0006844433123681272 15.721606633532286 3.14243952679273 0 0 0
170 1 1.5706809939705244 17.294436404366387 4.713531938783217 0 0 0
171 1 3.141950136311577 15.722177595068091 3.1417598847332293 0 0 0
172 1 4.711577023694724 17.297305066303075 4.710413195765287 0 0 0
173 1 6.284636625814599 15.724356692608408 3.139157042111133 0 0 0
174 1 7.858214953882805 17.297438887357398 4.710394378143444 0 0 0
175 1 9.431699353209524 15.724650485570528 3.139003159532415 0 0 0
176 1 11.005316959106013 17.29755686727029 4.710088418712257 0 0 0
177 1 12.579196480210362 15.724928710436005 3.1389113890796865 0 0 0
178 1 14.152593915155766 17.298045778134547 4.710159789196816 0 0 0
179 1 15.726574891235705 15.725046598625037 3.1390742189192875 0 0 0
180 1 17.29917400231131 17.297841554650887 4.710502757987909 0 0 0
181 1 18.869135245639534 15.72260499956792 3.141655420461959 0 0 0
182 1 20.43982033033889 17.29462154484228 4.71357297850932 0 0 0
183 1 0.00045743104666356 18.86595280955316 3.1423776171501454 0 0 0
184 1 1.5711110762809286 20.437637197655096 4.714009452086595 0 0 0
185 1 3.1421088215521746 18.866833621781282 3.1416545444173924 0 0 0
186 1 4.714447560507941 20.438188689689678 4.713402069446911 0 0 0
187 1 6.28659903562163 18.867177978960704 3.1413303663125007 0 0 0
188 1 7.859485770197003 20.438227945734152 4.713170483251737 0 0 0
189 1 9.432100097102035 18.867311948577274 3.1411187196175328 0 0 0
190 1 11.004973439683015 20.438256858850277 4.712990051679487 0 0 0
191 1 12.578027817434103 18.86747131787475 3.141106457171216 0 0 0
192 1 14.15056832028652 20.438404390126312 4.713160736004613 0 0 0
193 1 15.723810244241736 18.867569050664844 3.141297547937799 0 0 0
194 1 17.295805482117007 20.438403168218876 4.713380725226278 0 0 0
195 1 18.86839951560004 18.867071934326063 3.1417458189528715 0 0 0
196 1 20.438899428709142 20.43765348651238 4.714138401291427 0 0 0
197 1 0.0001245498608299788 22.00840312511076 6.2865805278065805 0 -1 0
198 1 1.5710199243698622 1.5697140681599295 7.858514518482677 0 0 0
199 1 3.1425712522198386 22.008403367434077 6.285920405358095 0 -1 0
200 1 4.713990123384103 1.5684622523088263 7.857641653984016 0 0 0
201 1 6.287063821436779 22.008402106997593 6.285662413050262 0 -1 0
202 1 7.85958346115755 1.5682934845328786 7.857650844100824 0 0 0
203 1 9.432222455161874 22.00840148482875 6.28531268728467 0 -1 0
204 1 11.004856649571249 1.568321020113319 7.857204633450765 0 0 0
205 1 12.577625756780726 22.00840142164626 6.285356022374969 0 -1 0
206 1 14.150272291068434 1.568031535693179 7.857779657332873 0 0 0
207 1 15.722948967928179 22.008402044791794 6.285687555024452 0 -1 0
208 1 17.295697116038887 1.5686279344709197 7.857874732391194 0 0 0
209 1 18.867252594778382 22.008403187203484 6.286108741682915 0 -1 0
210 1 20.438535458959898 1.5697659993351651 7.858619642254104 0 0 0
211 1 6.809551529352313e-05 3.141052225548015 6.2860284825919805 0 0 0
212 1 1.5695385438141223 4.7123498704801055 7.857556197833908 0 0 0
213 1 3.140975829794738 3.1394971024025287 6.284534420830278 0 0 0
214 1 4.708252729104434 4.706793185194097 7.85243469965578 0 0 0
215 1 6.285451697086914 3.1380553571940992 6.283653464039897 0 0 0
216 1 7.856315639825093 4.705054949806997 7.85247721027125 0 0 0
217 1 9.431877437499175 3.1383370092961265 6.283474081177121 0 0 0
218 1 11.005435016584133 4.706172786566914 7.851807842734824 0 0 0
219 1 12.578360566628911 3.1380358776181048 6.283497700285986 0 0 0
220 1 14.155140216276099 4.703638350564488 7.852081285064584 0 0 0
221 1 15.725057877849956 3.13747874335105 6.283534393677013 0 0 0
222 1 17.300548630323284 4.707838126216963 7.854049380507576 0 0 0
223 1 18.868719013538133 3.139670561333785 6.285000771457827 0 0 0
224 1 20.439585619176537 4.712555283121308 7.8579035525216465 0 0 0
225 1 0.00030663564844106016 6.285401181290554 6.285759558639811 0 0 0
226 1 1.5692989468468588 7.857945150180157 7.857546683157631 0 0 0
227 1 3.1395807703309675 6.283900387952237 6.283715023158041 0 0 0
228 1 4.706481202190221 7.854547453846174 7.852493825063757 0 0 0
229 1 6.278011850302896 6.276332197242624 6.274412477228626 0 0 0
230 1 7.837551823827736 7.834928654888467 7.827216117182356 0 0 0
231 1 9.430742822798583 6.278080583303475 6.276400807201217 0 0 0
232 1 11.007461700060624 7.845390428414168 7.835244958028943 0 0 0
233 1 12.581141689212727 6.277301083781532 6.276046762845121 0 0 0
234 1 14.177530764352614 7.8316250566199415 7.826905098610887 0 0 0
235 1 15.733611436678274 6.27515748790226 6.274390547819729 0 0 0
236 1 17.30447005629322 7.853872731975819 7.852706902671264 0 0 0
237 1 18.870964314081046 6.283478659615214 6.283806596227284 0 0 0
238 1 20.440240608251468 7.85796342629034 7.857777636088139 0 0 0
239 1 0.0005412150477738435 9.430856990074155 6.285622068738178 0 0 0
240 1 1.5697525994889554 11.00362879171324 7.8573900178780836 0 0 0
241 1 3.140521434309287 9.430612909518505 6.2841177897395095 0 0 0
242 1 4.70935258259238 11.003625184033597 7.853651897040832 0 0 0
243 1 6.2813845440482545 9.429435621901208 6.278124498561242 0 0 0
244 1 7.852954817791903 11.003623713954214 7.841734597929522 0 0 0
245 1 9.426751555148849 9.42368685062831 6.263346216215794 0 0 0
246 1 11.010089291420554 11.003618124632709 7.8001870752234295 0 0 0
247 1 12.587570321005096 9.422469872589321 6.262034850803957 0 0 0
248 1 14.164298116078106 11.00362370796515 7.835729770394298 0 0 0
249 1 15.731708691509745 9.428168365181287 6.276607696730238 0 0 0
250 1 17.302525681403313 11.003625775781666 7.852331398103046 0 0 0
251 1 18.870705190642973 9.430264990038328 6.283822849553311 0 0 0
252 1 20.44016760121143 11.003628684557475 7.857357157149403 0 0 0
253 1 0.0005411363784714326 12.576400883496873 6.285621911627373 0 0 0
254 1 1.5692987036785286 14.149313010975858 7.857545586642784 0 0 0
255 1 3.140521698059277 12.57664292921639 6.284117066714758 0 0 0
256 1 4.706484025541405 14.152703672269098 7.852492083692822 0 0 0
257 1 6.281384049410482 12.577814534732266 6.278121326556358 0 0 0
258 1 7.8375626887865755 14.172310851397798 7.827201656250978 0 0 0
259 1 9.42675416297403 12.583556423193821 6.263353830112305 0 0 0
260 1 11.007460757168769 14.161848796869233 7.835249100912342 0 0 0
261 1 12.587568353929656 12.584774562357444 6.262042138260651 0 0 0
262 1 14.177520242241693 14.175615320918261 7.826898514079795 0 0 0
263 1 15.731708171747153 12.579082318622707 6.276606097117071 0 0 0
264 1 17.304466943398772 14.153378543282477 7.852706293303316 0 0 0
265 1 18.870704618689945 12.576990882948166 6.283822291825715 0 0 0
266 1 20.44024044251348 14.149294395215977 7.857776715977773 0 0 0
267 1 0.0003065760216096275 15.721856852347699 6.285759729482259 0 0 0
268 1 1.5695368153738276 17.294908489664326 7.8575557384571235 0 0 0
269 1 3.139581647814246 15.723355465360052 6.283714829041856 0 0 0
270 1 4.708243562200048 17.300471662917822 7.85242378199283 0 0 0
271 1 6.278013406763024 15.730921287633983 6.27440555951779 0 0 0
272 1 7.856314317259448 17.302202714426272 7.8524667990186465 0 0 0
273 1 9.430746420327848 15.729169300370266 6.276395111367728 0 0 0
274 1 11.005435927387007 17.301083112164402 7.851799877104362 0 0 0
275 1 12.581139492515701 15.7299483149411 6.2760423902971185 0 0 0
276 1 14.155142588397089 17.303618634675047 7.852072384120582 0 0 0
277 1 15.733609588442297 15.732094454135744 6.2743856196803005 0 0 0
278 1 17.30055644956383 17.299425398883685 7.85404003165637 0 0 0
279 1 18.87096314563182 15.72377721179556 6.2838065033400134 0 0 0
280 1 20.43958716314675 17.29470296240809 7.857903106377139 0 0 0
281 1 6.803301892146344e-05 18.86620689287012 6.286028167616757 0 0 0
282 1 1.5710195552905688 20.437544745957478 7.85851446223335 0 0 0
283 1 3.1409730482576843 18.86776331132284 6.284531463662907 0 0 0
284 1 4.713988670052125 20.43879777006355 7.857639897503564 0 0 0
285 1 6.285450943879943 18.86920195976073 6.283649956343535 0 0 0
286 1 7.859583485592271 20.43896307555124 7.8576491786509655 0 0 0
287 1 9.431877794578636 18.86891822767652 6.283470559286038 0 0 0
288 1 11.004856730476627 20.438935047774628 7.857202604989068 0 0 0
289 1 12.578360840062343 18.869219110184904 6.283494427732859 0 0 0
290 1 14.150272360464559 20.439225203351604 7.857777952116578 0 0 0
291 1 15.725058592411125 18.86977793656966 6.283531464025702 0 0 0
292 1 17.29569826480279 20.438631984909204 7.857873017480893 0 0 0
293 1 18.86872122573523 18.86758929504003 6.284998284531528 0 0 0
294 1 20.438535859673053 20.43749292927986 7.858619503437827 0 0 0
295 1 22.009490520551843 22.008402784632423 9.431062908147666 -1 -1 0
296 1 1.5709250376089128 1.5697833223531912 11.003294102199279 0 0 0
297 1 3.1426047878652477 22.008402735843433 9.430810004931674 0 -1 0
298 1 4.713967487632802 1.5688874359202067 11.003061952990391 0 0 0
299 1 6.28719053877304 22.008402481908778 9.430861313689393 0 -1 0
300 1 7.859874492922144 1.56896260252446 11.00367329680515 0 0 0
301 1 9.432587640968539 22.008400677407106 9.430914752668293 0 -1 0
302 1 11.004312346353723 1.5705953843510034 11.003849851167635 0 0 0
303 1 12.576729180119713 22.00840082629816 9.431104319644572 0 -1 0
304 1 14.14973109095898 1.5686048114506714 11.00356086936016 0 0 0
305 1 15.72253382493089 22.008402844149355 9.430852122791302 0 -1 0
306 1 17.2954006715715 1.5689920665862473 11.003072202795162 0 0 0
307 1 18.866898511939368 22.008402954464664 9.430869821138883 0 -1 0
308 1 20.438294199682677 1.5698415193406736 11.003300691380375 0 0 0
309 1 22.009342325928426 3.1411918181953715 9.43080061919474 -1 0 0
310 1 1.5694880967718041 4.712411005382546 11.002970789111462 0 0 0
311 1 3.141305559822185 3.1400232684943017 9.430190617604296 0 0 0
312 1 4.709968926460052 4.709085737049062 11.001778037075125 0 0 0
313 1 6.284978867677111 3.136736437832963 9.429041153609832 0 0 0
314 1 7.85620518776351 4.704819888030447 11.001911662241653 0 0 0
315 1 9.432590199014278 3.1380552626470584 9.429418256681924 0 0 0
316 1 11.003780293975229 4.715470835595188 11.003686567492844 0 0 0
317 1 12.57698641486566 3.1374987535024648 9.429847788153044 0 0 0
318 1 14.153530691971318 4.704497532416771 11.002101522000926 0 0 0
319 1 15.724572645896787 3.1371546962617973 9.429401490039453 0 0 0
320 1 17.298416828797425 4.7096969092064 11.00223904253083 0 0 0
321 1 18.867874944077656 3.140287196150561 9.430424338623961 0 0 0
322 1 20.43893487536148 4.71263163145725 11.00306621147111 0 0 0
323 1 22.00896132984739 6.285509450211311 9.430727767246244 -1 0 0
324 1 1.5682114584371258 7.858094298977352 11.003386317456476 0 0 0
325 1 3.137185235175029 6.283113246425469 9.428629043683205 0 0 0
326 1 4.702405747252788 7.854330088946719 11.001085661792214 0 0 0
327 1 6.268519790644777 6.267182499823174 9.413774257050958 0 0 0
328 1 7.808966092401675 7.810810536390189 10.955203041256055 0 0 0
329 1 9.430553517979183 6.2692132205100295 9.41944218485119 0 0 0
330 1 11.016945317024714 7.859212310454835 10.97370103556139 0 0 0
331 1 12.583945221814007 6.2655231895956875 9.418860771519785 0 0 0
332 1 14.187216162236517 7.820138213488325 10.97447231549962 0 0 0
333 1 15.737348454084708 6.271142653066229 9.418982857785018 0 0 0
334 1 17.30241743675278 7.855325792313042 11.00285260402708 0 0 0
335 1 18.87071009508762 6.2838330070448665 9.429617447475351 0 0 0
336 1 20.438753408211117 7.85832268676666 11.003609618642583 0 0 0
337 1 22.008822209474744 9.431235461361338 9.430815336980206 -1 0 0
338 1 1.5686393112864174 11.003632606732474 11.003690418252196 0 0 0
339 1 3.1377220182264165 9.430710063371313 9.42897571710145 0 0 0
340 1 4.7057858509771595 11.003640469408147 11.004154793309565 0 0 0
341 1 6.271187356156467 9.426638944886292 9.42025546842571 0 0 0
342 1 7.821342478839384 11.003563522485065 10.970031165987036 0 0 0
343 1 9.375470040049473 9.368360278326431 9.368206599625399 0 0 0
344 1 11.0594483865843 11.003488473917983 10.47957767438114 0 0 0
345 1 12.651770501620572 9.358135197042488 9.365720468226648 0 0 0
346 1 14.148396545991796 11.00358097103419 10.973464291563893 0 0 0
347 1 15.741650407882995 9.426280804084247 9.420435986587218 0 0 0
348 1 17.293221191877045 11.003639154735604 11.00391737479391 0 0 0
349 1 18.8704765587543 9.43120552236076 9.429821922888504 0 0 0
350 1 20.436984061772936 11.003631869643332 11.003853335304907 0 0 0
351 1 22.008822207798858 12.576024588002708 9.430814227263316 -1 0 0
352 1 1.5682146989298347 14.149162650571036 11.003388770390307 0 0 0
353 1 3.1377213922489453 12.57655011793175 9.428971284203996 0 0 0
354 1 4.702410333565319 14.152922688461327 11.001088509716899 0 0 0
355 1 6.271193930185719 12.580595688507351 9.42025034466051 0 0 0
356 1 7.808903862646817 14.196519342530687 10.955076393842244 0 0 0
357 1 9.375493083018997 12.638846216583783 9.368248198539373 0 0 0
358 1 11.016948686304374 14.148113905799088 10.973672902863221 0 0 0
359 1 12.651746019175746 12.649076342677551 9.365758002119103 0 0 0
360 1 14.187271172712633 14.187189960530558 10.974367508945628 0 0 0
361 1 15.741641137829326 12.580958628304906 9.420432819163215 0 0 0
362 1 17.302414257529865 14.15192710954631 11.002854605316369 0 0 0
363 1 18.870476875761536 12.576053594862314 9.42981804219648 0 0 0
364 1 20.438751812295248 14.14893398114468 11.00361166277649 0 0 0
365 1 22.008961548988978 15.721747459243485 9.430729221469543 -1 0 0
366 1 1.5694876577788133 17.29484723264556 11.002971569692571 0 0 0
367 1 3.1371821171317094 15.724143988724348 9.428628288701468 0 0 0
368 1 4.709966961158725 17.298173077239053 11.001775980189796 0 0 0
369 1 6.268492255587813 15.740098889547772 9.413737583319152 0 0 0
370 1 7.856203838902601 17.302446211011066 11.001903833264215 0 0 0
371 1 9.430552934734042 15.738050607220107 9.419414391931362 0 0 0
372 1 11.003780925498491 17.291777871363394 11.003688841364957 0 0 0
373 1 12.583948411485624 15.74173896001158 9.418836832415831 0 0 0
374 1 14.153533439158386 17.302769808849625 11.002093749660833 0 0 0
375 1 15.737372078345002 15.736134977832956 9.41895191533527 0 0 0
376 1 17.2984203981835 17.297563426831648 11.002236279007116 0 0 0
377 1 18.870713055809233 15.723424166259644 9.429616449564781 0 0 0
378 1 20.438935905697743 17.29462687773381 11.00306662098187 0 0 0
379 1 22.00934235774148 18.866066494809537 9.4308010670083 -1 0 0
380 1 1.570924659337652 20.43747512983877 11.00329446627844 0 0 0
381 1 3.1413036847798033 18.86723578008962 9.430190322400327 0 0 0
382 1 4.7139668407535655 20.438370528533703 11.003061739876339 0 0 0
383 1 6.284976239548525 18.870525510417828 9.429036110946186 0 0 0
384 1 7.859874972220423 20.438292775450094 11.003672950673803 0 0 0
385 1 9.43259160793081 18.869200893186004 9.429414061829359 0 0 0
386 1 11.004312362241064 20.436654028149608 11.003850009192904 0 0 0
387 1 12.576985566780198 18.869757636475654 9.429843250336926 0 0 0
388 1 14.14973093192163 20.438651488469834 11.003560261257832 0 0 0
389 1 15.7245752985435 18.870107532525523 9.429396998462972 0 0 0
390 1 17.29540149932627 20.43826694823955 11.003071773631122 0 0 0
391 1 18.86787662386403 18.86697204416457 9.430423530429474 0 0 0
392 1 20.438294483797993 20.43741710347311 11.003300904664943 0 0 0
393 1 22.00937899023575 22.008402797957846 12.575714661299767 -1 -1 0
394 1 1.570882040111516 1.569771518535004 14.148172392252233 0 0 0
395 1 3.1425257862264733 22.008402535438425 12.575734357952998 0 -1 0
396 1 4.713939242997811 1.5689122476431008 14.14840782022899 0 0 0
397 1 6.286833112066455 22.008401542091462 12.57574175012974 0 -1 0
398 1 7.859859247493059 1.5691942029738226 14.147721662639322 0 0 0
399 1 9.432544070993952 22.008397575422325 12.575728739841702 0 -1 0
400 1 11.004246408846365 1.5709584491164346 14.147462786606965 0 0 0
401 1 12.576499917364922 22.008397845269414 12.575712847413211 0 -1 0
402 1 14.149676724263713 1.5686673212056899 14.147809073187469 0 0 0
403 1 15.722638594580815 22.008401927763373 12.575686335532703 0 -1 0
404 1 17.29538256837845 1.5689836045773975 14.148292279066565 0 0 0
405 1 18.86676688792277 22.008402833743144 12.575677519440735 0 -1 0
406 1 20.438261627219134 1.5698215709335672 14.148105581595875 0 0 0
407 1 22.009185179984037 3.1411962864561978 12.57572995860159 -1 0 0
408 1 1.5693678213494366 4.712353393353375 14.148623483073834 0 0 0
409 1 3.1412210618648335 3.140171504479781 12.575760220622909 0 0 0
410 1 4.709775272838212 4.709074744884255 14.14990507530642 0 0 0
411 1 6.2843949882081205 3.1379290636931976 12.575781415413138 0 0 0
412 1 7.855849393787736 4.705779842144597 14.149666748502424 0 0 0
413 1 9.432280289485442 3.1444863536213976 12.575866582909228 0 0 0
414 1 11.003886201334725 4.717394398181214 14.147599752505705 0 0 0
415 1 12.576698660375587 3.1420624641716492 12.575788355233462 0 0 0
416 1 14.153673740883587 4.70464029414154 14.149482458935442 0 0 0
417 1 15.724685334286155 3.1378499434391665 12.57571112337877 0 0 0
418 1 17.298485474365343 4.70965375542032 14.149245999690748 0 0 0
419 1 18.867645951859007 3.1403564843026124 12.575700045208881 0 0 0
420 1 20.438899784782997 4.7125684385283435 14.148430821792475 0 0 0
421 1 22.00854789385981 6.285170870592988 12.575796422637698 -1 0 0
422 1 1.5675130650032532 7.857804514639853 14.148760421163862 0 0 0
423 1 3.1373045794246672 6.282764002380376 12.57583426979451 0 0 0
424 1 4.700343468040252 7.853436873452426 14.152093289682979 0 0 0
425 1 6.27406914738829 6.2745502355132245 12.575840559910791 0 0 0
426 1 7.80476839042092 7.8141268728322455 14.196116744941353 0 0 0
427 1 9.426869373369192 6.3008450570567005 12.57662964165208 0 0 0
428 1 11.020517318407961 7.869176439935141 14.177380295756343 0 0 0
429 1 12.581063217320951 6.286999003815959 12.576089146907954 0 0 0
430 1 14.189121775781848 7.82008589724877 14.178685268375112 0 0 0
431 1 15.732200224712843 6.275862444086246 12.575827431634826 0 0 0
432 1 17.30293259468664 7.855232089158544 14.149047652385022 0 0 0
433 1 18.869890297526638 6.283362772724518 12.575763129865166 0 0 0
434 1 20.43867284157079 7.858232664096392 14.148135642395346 0 0 0
435 1 22.007674135540448 9.431200036777161 12.576000967117418 -1 0 0
436 1 1.5689515425725233 11.003633490185992 14.14856043118253 0 0 0
437 1 3.1390812782903277 9.430273559374012 12.57683305445904 0 0 0
438 1 4.710150573655563 11.003641844902964 14.150019166104254 0 0 0
439 1 6.283291889305105 9.42230982792897 12.579710024124305 0 0 0
440 1 7.842917719357283 11.003556458064862 14.186566602470512 0 0 0