LAMMPS data file via write_data, version 2 Aug 2023, timestep = 36, units = metal

690 atoms
3 atom types

0 22.009546999999998 xlo xhi
0 22.009546999999998 ylo yhi
0 22.009546999999998 zlo zhi

Masses

1 183.84
2 1.008
3 4.0026

Atoms # atomic

1 1 22.008898012788432 22.00815220994867 22.008861867548866 -1 -1 -1
2 1 1.5703593390008768 1.5703961920008223 1.5706510807190066 0 0 0
3 1 3.1421895089810548 22.008598437584013 22.00862718643185 0 -1 -1
4 1 4.713968609157719 1.570553567434979 1.5703285940639649 0 0 0
5 1 6.286332642060047 22.00893558103341 22.00846165671958 0 -1 -1
6 1 7.858534454275438 1.5706799834189686 1.5702707121322914 0 0 0
7 1 9.431063933705827 22.008979671605207 22.008599847283833 0 -1 -1
8 1 11.003460443817247 1.570638699867239 1.570492369391517 0 0 0
9 1 12.576077093616474 22.008792777330616 22.008890797798745 0 -1 -1
10 1 14.148497450166474 1.5704124810567397 1.5707968674650914 0 0 0
11 1 15.721035376047968 22.008444821791763 22.00913324308026 0 -1 -1
12 1 17.293336014753596 1.5701267493533027 1.5709821294494657 0 0 0
13 1 18.865600464645432 22.008114078596016 22.00922662902488 0 -1 -1
14 1 20.437415003378824 1.5700707686008868 1.5709721001286538 0 0 0
15 1 22.00885953110632 3.1419862234735665 22.009278241287603 -1 0 -1
16 1 1.5699880218526907 4.714305197903009 1.570761874906816 0 0 0
17 1 3.1415858670866257 3.1416463594671327 22.00916796644658 0 0 -1
18 1 4.7129522958641425 4.713554477981386 1.570345815194938 0 0 0
19 1 6.28598830902137 3.1417685760051572 22.008908693526486 0 0 -1
20 1 7.8580304213735435 4.713689841560128 1.5701036512166362 0 0 0
21 1 9.430912619161491 3.141820402630318 22.009016264311747 0 0 -1
22 1 11.003280950681436 4.713675128088768 1.5704865146606037 0 0 0
23 1 12.576106010903496 3.1416409520956377 22.009470082743277 0 0 -1
24 1 14.148626095007694 4.713578024882158 1.5710434508923983 0 0 0
25 1 15.721382100912052 3.1413046015291983 0.00043971988428564106 0 0 0
26 1 17.294105883401 4.7133336559990235 1.5714237363281356 0 0 0
27 1 18.866472337406076 3.1410509837174803 0.0007086095088317667 0 0 0
28 1 20.437183803795637 4.714255933677743 1.5712684700220414 0 0 0
29 1 22.008515649647638 6.2865417758567075 22.00935968227202 -1 0 -1
30 1 1.5696006558925384 7.858968027705505 1.570746828969574 0 0 0
31 1 3.1411521357206786 6.286178923516855 22.009160550235816 0 0 -1
32 1 4.712373341355093 7.858556150224642 1.5701577447802793 0 0 0
33 1 6.284609347314258 6.285263890146742 0.0005281750508209744 0 0 0
34 1 7.85716013491111 7.858397898123643 1.569831830419997 0 0 0
35 1 9.43053525548181 6.285602496350089 22.009533106655876 0 0 -1
36 1 11.002983481016262 7.858423003284516 1.5699467897272312 0 0 0
37 1 12.576078322014638 6.285438729628395 0.0008083805183035181 0 0 0
38 1 14.1489031751239 7.8584712585488 1.5710763061087567 0 0 0
39 1 15.7224488222975 6.285043832382423 0.0023372085420629647 0 0 0
40 1 17.293699134917368 7.858846036309298 1.5717663192499165 0 0 0
41 1 18.8662137192075 6.2861285207182656 0.0008846971502143359 0 0 0
42 1 20.43680617378339 7.859035311329075 1.5713798807433281 0 0 0
43 1 22.008192927381355 9.431445166818177 22.009303476909302 -1 0 -1
44 1 1.5693485872046875 11.003955603335124 1.5706510231321837 0 0 0
45 1 3.1408047904114236 9.431358914610463 22.0090291270737 0 0 -1
46 1 4.712008958798265 11.00415664808517 1.569936835554668 0 0 0
47 1 6.2840629199678375 9.43112176959258 0.00010242981894717206 0 0 0
48 1 7.856524554872313 11.00434155301903 1.5693765746468615 0 0 0
49 1 9.430033219747886 9.431247964375537 0.0005529279212256276 0 0 0
50 1 11.002804450961033 11.004652133708685 1.5694691243603867 0 0 0
51 1 12.57614242307004 9.43132642737557 0.0010026982770965744 0 0 0
52 1 14.148969308518618 11.004391366043306 1.5707884954804467 0 0 0
53 1 15.722163663227247 9.431361340199018 0.0016844984432726761 0 0 0
54 1 17.293586408552976 11.004086437384272 1.571602574979696 0 0 0
55 1 18.86588349133086 9.431402842927211 0.0006958633351218467 0 0 0
56 1 20.436589518576035 11.003919398296206 1.5712784223701945 0 0 0
57 1 22.008045134537475 12.576371164392999 22.009122456516288 -1 0 -1
58 1 1.5693123732216063 14.148930418571894 1.5704902031721946 0 0 0
59 1 3.14062440588167 12.576725599897186 22.008880678002754 0 0 -1
60 1 4.711934941442355 14.149868011699443 1.5697586550875349 0 0 0
61 1 6.283892098097453 12.577391914586629 22.00949996566671 0 0 -1
62 1 7.85655593041139 14.150868011890244 1.5691961128419316 0 0 0
63 1 9.429736582834435 12.577820836216564 0.0008811937474080704 0 0 0
64 1 11.00313632556109 14.15090518580087 1.5696885870863806 0 0 0
65 1 12.576271918469908 12.57752576083832 0.0011020572869667087 0 0 0
66 1 14.149081596307227 14.150209516939267 1.5704618818431462 0 0 0
67 1 15.722024136736001 12.577034668508368 0.0010922503773876388 0 0 0
68 1 17.29371844390543 14.149273912916389 1.57106973656785 0 0 0
69 1 18.865752282620544 12.576569419398137 0.0003818068393132312 0 0 0
70 1 20.43664939115302 14.148726627559277 1.5710397130378242 0 0 0
71 1 22.008143993045465 15.721069014629366 22.008893275824008 -1 0 -1
72 1 1.569596852817221 17.29356424796471 1.5703767995221865 0 0 0
73 1 3.140678902011702 15.721906144043887 22.00877912503814 0 0 -1
74 1 4.712335481697325 17.29497906825443 1.5698333697280926 0 0 0
75 1 6.283947404306646 15.723507302086333 2.649393974121441e-05 0 0 0
76 1 7.857501539111658 17.29537515960152 1.5697022969297727 0 0 0
77 1 9.4301065959694 15.723615711622394 4.770051322057658e-05 0 0 0
78 1 11.00328886793182 17.295306275915756 1.5699558606048034 0 0 0
79 1 12.576435608745072 15.723403273155244 0.0003850857856130504 0 0 0
80 1 14.148939534421796 17.294893630277006 1.5703602135560006 0 0 0
81 1 15.72228945796505 15.722831871580619 0.0009827763290705693 0 0 0
82 1 17.293978044024215 17.29430422182943 1.5706856193278889 0 0 0
83 1 18.8658934525251 15.721514537997875 6.693396754002702e-05 0 0 0
84 1 20.43694186701607 17.293302448833675 1.5707761115001306 0 0 0
85 1 22.008503703325744 18.86524733757776 22.008816808753306 -1 0 -1
86 1 1.5702383541126417 20.437184659677524 1.5704443757132691 0 0 0
87 1 3.141302990845944 18.866154680990284 22.008655354870502 0 0 -1
88 1 4.713743415423293 20.43778637634888 1.570145182212852 0 0 0
89 1 6.285520798388184 18.866754462203804 22.00862485404922 0 0 -1
90 1 7.858364180147918 20.43798845920725 1.5700953271741156 0 0 0
91 1 9.43073524138561 18.866811685646105 22.008710168819178 0 0 -1
92 1 11.003447442633403 20.43792235710302 1.5702721210777042 0 0 0
93 1 12.57617679944056 18.8666040089014 22.008979120069085 0 0 -1
94 1 14.148558623439103 20.437642835133225 1.5705328889777947 0 0 0
95 1 15.721396047858615 18.86622124996416 22.009264018637253 0 0 -1
96 1 17.29329634972256 20.43726195845654 1.5707149135425593 0 0 0
97 1 18.8659301570772 18.865780681276284 22.009342288916972 0 0 -1
98 1 20.437166728350878 20.43698311005312 1.5707171438194807 0 0 0
99 1 22.008651700737143 22.008316632365503 3.142133834552434 -1 -1 0
100 1 1.5702229087366302 1.5700560504395462 4.713539903056891 0 0 0
101 1 3.1418528298019184 22.008762436969956 3.141718013487963 0 -1 0
102 1 4.713272278922148 1.5700072838139418 4.712868138134876 0 0 0
103 1 6.286002067075141 22.00908580974281 3.141512032536743 0 -1 0
104 1 7.858102498266079 1.5702839566697575 4.712821303406143 0 0 0
105 1 9.430857673344844 22.009150209294166 3.141526351765835 0 -1 0
106 1 11.003304432880737 1.570264109322633 4.712896472412702 0 0 0
107 1 12.575967452322296 22.00898860598184 3.1417364667787457 0 -1 0
108 1 14.148666041513788 1.5699814567927644 4.713072318168352 0 0 0
109 1 15.720969609218905 22.008653880238832 3.1419508748462714 0 -1 0
110 1 17.293904310752147 1.5695387883319647 4.713076433164861 0 0 0
111 1 18.865459531780544 22.008331913702232 3.1420439669392226 0 -1 0
112 1 20.437769729377624 1.5696757718034193 4.713400339085029 0 0 0
113 1 22.008453781295966 3.142174108610314 3.1421772795093124 -1 0 0
114 1 1.5694106984757954 4.7138586835333935 4.713332766797875 0 0 0
115 1 3.1412082306465887 3.1417304348434176 3.1414692923770615 0 0 0
116 1 4.711200756567339 4.712031405800827 4.7109880435765445 0 0 0
117 1 6.285578004926841 3.141714174054013 3.141086812592661 0 0 0
118 1 7.8569393956426445 4.712313971536768 4.710895219329686 0 0 0
119 1 9.43066311913731 3.1418214641785913 3.1412420690285154 0 0 0
120 1 11.002925102361218 4.71248800831583 4.711396681505178 0 0 0
121 1 12.575927895763954 3.1417570885407033 3.141541328729965 0 0 0
122 1 14.148866706777973 4.712368518075503 4.711666339759741 0 0 0
123 1 15.721174135336947 3.1415156128215527 3.1417524757766957 0 0 0
124 1 17.29547581731145 4.711833445943416 4.711060265977286 0 0 0
125 1 18.866045406698003 3.1413887688027877 3.141792959130944 0 0 0
126 1 20.437421337161 4.713885322134533 4.713527528853916 0 0 0
127 1 22.007929440658906 6.286656671134502 3.1423433201255033 -1 0 0
128 1 1.5687861529048903 7.858749508914774 4.713302665644855 0 0 0
129 1 3.140626871387924 6.286155927802046 3.1413786531109023 0 0 0
130 1 4.710549754476465 7.857828482907066 4.710931854924963 0 0 0
131 1 6.28408604530787 6.285197492091742 3.1396754352567484 0 0 0
132 1 7.854570182989118 7.856793750034956 4.707052990537686 0 0 0
133 1 9.42997324155926 6.2854459324533645 3.139871540760491 0 0 0
134 1 11.001823226490718 7.857233847529896 4.708657647562014 0 0 0
135 1 12.57574426071799 6.285593308841849 3.140666008023273 0 0 0
136 1 14.150006311439718 7.856812796078397 4.708276312563416 0 0 0
137 1 15.721960785549243 6.285306355552602 3.140728837990678 0 0 0
138 1 17.293957109041145 7.85875410735211 4.712963706222173 0 0 0
139 1 18.865485371850617 6.286454825498454 3.142394603171598 0 0 0
140 1 20.436587682436485 7.858958340138207 4.713949237153737 0 0 0
141 1 22.007543632818646 9.431454479876757 3.1423452550898245 -1 0 0
142 1 1.5684279246557764 11.003942662096783 4.713210538211147 0 0 0
143 1 3.1401717567110294 9.431325500399812 3.1412519406036936 0 0 0
144 1 4.710042054356137 11.004320683548784 4.710589651399936 0 0 0
145 1 6.2833170889286105 9.431119116335957 3.1393461102022124 0 0 0
146 1 7.853633766262722 11.004816406702083 4.706208832557851 0 0 0
147 1 9.429338376420494 9.431407089522764 3.1384375703856793 0 0 0
148 1 11.001418021081234 11.005945894941098 4.70589744672141 0 0 0
149 1 12.575714328922578 9.431556432289106 3.138755163599559 0 0 0
150 1 14.149627644841587 11.005290564084408 4.710080718841873 0 0 0
151 1 15.721334120496497 9.43154501727132 3.1418076917636095 0 0 0
152 1 17.29368200807243 11.004066149725979 4.713170137863871 0 0 0
153 1 18.865072543567088 9.431475610889574 3.142587486298898 0 0 0
154 1 20.43624903673432 11.003864572360172 4.713971911839901 0 0 0
155 1 22.007431520280964 12.576332631168233 3.1422440445155053 -1 0 0
156 1 1.5683873978963858 14.14917871298418 4.713132944630231 0 0 0
157 1 3.139934015858542 12.576810162586453 3.1410792194945465 0 0 0
158 1 4.709673349241017 14.151120329682756 4.710208792945651 0 0 0
159 1 6.283008798464017 12.57771909499118 3.1388708945139796 0 0 0
160 1 7.853237026991431 14.154111696376036 4.704996359183817 0 0 0
161 1 9.42891293931283 12.578535839967289 3.1371039007439885 0 0 0
162 1 11.002704227490252 14.153581555070016 4.706798134045472 0 0 0
163 1 12.575986282013316 12.577979233769256 3.1390496200759976 0 0 0
164 1 14.150579729836803 14.152605828312023 4.707891297748233 0 0 0
165 1 15.721659177305275 12.577192659815957 3.141167588062103 0 0 0
166 1 17.29449975958563 14.149830618035022 4.7122487990858275 0 0 0
167 1 18.865097579850357 12.576436334875261 3.1424197753215646 0 0 0
168 1 20.43653769610909 14.148794230782748 4.713814169914113 0 0 0
169 1 22.007665186664884 15.721106317250765 3.1420573106157104 -1 0 0
170 1 1.5688911777077377 17.29409105775784 4.713088418678488 0 0 0
171 1 3.1400287369902453 15.722152732423933 3.140953294414843 0 0 0
172 1 4.710333033245876 17.296812805475238 4.710638736429083 0 0 0
173 1 6.283133936818572 15.72413316014601 3.138793387667853 0 0 0
174 1 7.856165777542497 17.29741477937027 4.7101549847178275 0 0 0
175 1 9.429706174421142 15.72424625391207 3.139019759454452 0 0 0
176 1 11.00303387930239 17.297085950532527 4.710576889564096 0 0 0
177 1 12.576311651113404 15.723904532306406 3.139706944565577 0 0 0
178 1 14.149608543271974 17.29656260419572 4.71109383355036 0 0 0
179 1 15.722226722662274 15.723092542749924 3.140227844447692 0 0 0
180 1 17.295460456938983 17.295851895332422 4.711322181680515 0 0 0
181 1 18.8655371785577 15.72146709117944 3.141878366092235 0 0 0
182 1 20.437276715374047 17.2937258224047 4.713346447179201 0 0 0
183 1 22.008197939165377 18.865380132117934 3.141932256152648 -1 0 0
184 1 1.5700676986725006 20.437210099293814 4.713655076114881 0 0 0
185 1 3.140818371993326 18.866429514305064 3.1412291278278404 0 0 0
186 1 4.71297841845457 20.438294487059665 4.71280656684644 0 0 0
187 1 6.285056596462218 18.867154494862 3.140751296812275 0 0 0
188 1 7.857876521276959 20.438608772067738 4.712618925319958 0 0 0
189 1 9.430471335715568 18.867218613022786 3.1408037130143294 0 0 0
190 1 11.003306309905042 20.438479331429654 4.712687689064955 0 0 0
191 1 12.57609167897395 18.86696212747655 3.1410978277270503 0 0 0
192 1 14.148795501177267 20.438127842188354 4.712939536050175 0 0 0
193 1 15.72139449122265 18.86649116389364 3.1413960679005615 0 0 0
194 1 17.29385089355792 20.437613655888384 4.713166694868258 0 0 0
195 1 18.86582429266116 18.865932749251304 3.141642150583295 0 0 0
196 1 20.437449668990386 20.436985000477435 4.713614455858445 0 0 0
197 1 22.00883298931211 22.00806700740924 6.285917737314623 -1 -1 0
198 1 1.5705133417012553 1.5697197741837445 7.85793342499034 0 0 0
199 1 3.1416596754927917 22.008371141600044 6.285488352377541 0 -1 0
200 1 4.713002094615521 1.5690456192653885 7.857130221559974 0 0 0
201 1 6.285446783442319 22.008908713339785 6.284896355773985 0 -1 0
202 1 7.857781685603126 1.568826769849281 7.85682393482769 0 0 0
203 1 9.430613968231256 22.009092462748292 6.2847371953798294 0 -1 0
204 1 11.003393537698017 1.568773279951578 7.856598520127754 0 0 0
205 1 12.57614157800307 22.00881424024402 6.28480177216648 0 -1 0
206 1 14.149480183867214 1.567930877556551 7.856622524354959 0 0 0
207 1 15.72164463099365 22.00822988711142 6.284977565174144 0 -1 0
208 1 17.295460708970243 1.5674128421066653 7.856520471320016 0 0 0
209 1 18.866292103752333 22.007747177525587 6.285221894425386 0 -1 0
210 1 20.438217832110873 1.569197954409999 7.857734138182182 0 0 0
211 1 22.009001110621533 3.1413481384471735 6.285316512362459 -1 0 0
212 1 1.5694804044575232 4.713056507885051 7.857279314992928 0 0 0
213 1 3.140503003856924 3.140626936463481 6.284408940457415 0 0 0
214 1 4.708753873932408 4.709308820948203 7.853640093354596 0 0 0
215 1 6.284076488365439 3.1394893202845258 6.283272778385075 0 0 0
216 1 7.85370666938418 4.706671378803601 7.8521023539453685 0 0 0
217 1 9.43016754192767 3.140139261116398 6.283616411998016 0 0 0
218 1 11.00266239537 4.708159558030704 7.853426720151126 0 0 0
219 1 12.576107937322702 3.139912245037644 6.28364796749117 0 0 0
220 1 14.151638222390988 4.705975819820686 7.852414194616209 0 0 0
221 1 15.722713269443938 3.1389893560862197 6.283348869391027 0 0 0
222 1 17.301917549172472 4.705378870028738 7.850288755201474 0 0 0
223 1 18.868082914783063 3.139374082200467 6.283483426104571 0 0 0
224 1 20.43961555270977 4.712311282838404 7.856737601075977 0 0 0
225 1 22.00796227070497 6.286253531527836 6.285555394781786 -1 0 0
226 1 1.5681024675601984 7.858429437142387 7.8573208774600065 0 0 0
227 1 3.138880558798191 6.285076143896948 6.283861525711081 0 0 0
228 1 4.706323077203345 7.85602608538072 7.85340448260801 0 0 0
229 1 6.278728861148835 6.2801543131248385 6.27741314202 0 0 0
230 1 7.839902472945946 7.843728004269194 7.836475181973279 0 0 0
231 1 9.428272432164047 6.282197757046046 6.279090216059365 0 0 0
232 1 10.998369535287994 7.853250675959043 7.846901667263116 0 0 0
233 1 12.575410590193293 6.282612937346977 6.280344515006522 0 0 0
234 1 14.159755409506248 7.8438823777185105 7.8381285391650595 0 0 0
235 1 15.726512499611191 6.280289516867497 6.2772806396679695 0 0 0
236 1 17.297421792826515 7.857552479587884 7.855196932019628 0 0 0
237 1 18.86711113263242 6.2854924457999335 6.284446172821688 0 0 0
238 1 20.437540263444497 7.858697238166393 7.8577859214099774 0 0 0
239 1 22.007168521840498 9.431292359460837 6.285577322570949 -1 0 0
240 1 1.567496412896863 11.003863424587543 7.85712884898625 0 0 0
241 1 3.138270907987968 9.431002422028566 6.283701714531012 0 0 0
242 1 4.705938051635109 11.004648522607459 7.852688706990246 0 0 0
243 1 6.27855877868131 9.430057563996478 6.278294211704595 0 0 0
244 1 7.842917400772378 11.006630033105923 7.838397954928931 0 0 0
245 1 9.424657816309477 9.429581130226198 6.2730624612461225 0 0 0
246 1 10.996928059430564 11.01082863482825 7.8346954235344235 0 0 0
247 1 12.57662288336636 9.430086783808516 6.270282439266862 0 0 0
248 1 14.151108524921343 11.008134090061011 7.851092322206972 0 0 0
249 1 15.722169794892682 9.431516220346394 6.283167910571229 0 0 0
250 1 17.295603257322803 11.004081499478898 7.855939562074192 0 0 0
251 1 18.865622362455902 9.431316436824261 6.2852283644170335 0 0 0
252 1 20.436734176472736 11.003697681304766 7.857793088895502 0 0 0
253 1 22.00704076015672 12.576351428492623 6.285588199741085 -1 0 0
254 1 1.5675454784687006 14.14927580932104 7.857424065351436 0 0 0
255 1 3.1378452249587165 12.577286075725137 6.283566068964878 0 0 0
256 1 4.704266935977216 14.154118888485323 7.852298550973984 0 0 0
257 1 6.277698340979805 12.580209197605248 6.277124470324107 0 0 0
258 1 7.83485409650314 14.172619763191985 7.83301181912431 0 0 0
259 1 9.423216296006304 12.584324362817727 6.267494537699329 0 0 0
260 1 11.00170099586586 14.163757827281264 7.8403469815830835 0 0 0
261 1 12.5779601951347 12.58260579408591 6.274089629274769 0 0 0
262 1 14.164485364127781 14.168304891160838 7.837550838254321 0 0 0
263 1 15.723800349569274 12.578339338752826 6.281680904404852 0 0 0
264 1 17.29944473467607 14.152701996627602 7.853983647194132 0 0 0
265 1 18.865852723264485 12.576534380966136 6.285260717380782 0 0 0
266 1 20.437511033689937 14.148812509697368 7.857925554259628 0 0 0
267 1 22.00761522356034 15.72139428909618 6.285520758819347 -1 0 0
268 1 1.5692055038533952 17.293999975940604 7.857677451750987 0 0 0
269 1 3.137827388735134 15.723523015712464 6.2834532207261224 0 0 0
270 1 4.709764897455932 17.297390499876407 7.855381165520869 0 0 0
271 1 6.276775938288968 15.730448088164898 6.276398432608933 0 0 0
272 1 7.852996254221941 17.303070716752895 7.852054568975368 0 0 0
273 1 9.427449094409043 15.729293080963119 6.277467014520086 0 0 0
274 1 11.00269980584506 17.301461011826216 7.852549215836146 0 0 0
275 1 12.577347457601894 15.72859396489698 6.278740764028548 0 0 0
276 1 14.15176365524892 17.301450611424983 7.853309664462573 0 0 0
277 1 15.727300263478002 15.728529643245054 6.27794337270125 0 0 0
278 1 17.298139841126645 17.29836226731116 7.854067083574007 0 0 0
279 1 18.867441721167072 15.72266963261118 6.284172141805141 0 0 0
280 1 20.4382268300112 17.294006959073585 7.857502696022382 0 0 0
281 1 22.008495228417264 18.865446877477897 6.2856799341369305 -1 0 0
282 1 1.5703421436266303 20.436894913585235 7.858102032783977 0 0 0
283 1 3.1404856059051944 18.86665411843956 6.284910603261925 0 0 0
284 1 4.713027117440329 20.438008033165087 7.857456445732458 0 0 0
285 1 6.283489326561191 18.869292654489783 6.283166155071763 0 0 0
286 1 7.857589683542622 20.439430040860618 7.856856748840007 0 0 0
287 1 9.429866884553018 18.869161018327436 6.283193849519967 0 0 0
288 1 11.003348567782155 20.43926847788332 7.856546668333501 0 0 0
289 1 12.576399481073642 18.868762576162318 6.283416320567381 0 0 0
290 1 14.14936277691134 20.4387626589009 7.8568680534068065 0 0 0
291 1 15.722659208644405 18.868237436933324 6.283735034438227 0 0 0
292 1 17.29469257046318 20.437675086106896 7.857221828642326 0 0 0
293 1 18.866876662968142 18.866544844823824 6.284621731689825 0 0 0
294 1 20.437752226900823 20.436701856691656 7.858021975185682 0 0 0
295 1 22.009181374585197 22.007721997303737 9.430551376556714 -1 -1 0
296 1 1.5709151414005524 1.569384511808869 11.002910085961114 0 0 0
297 1 3.141971428970039 22.008010310287403 9.430339056668714 0 -1 0
298 1 4.713357434769767 1.568799925488592 11.002593842344542 0 0 0
299 1 6.285714577208721 22.00827162905632 9.43009009740576 0 -1 0
300 1 7.858345859258923 1.568150488534519 11.002921282319942 0 0 0
301 1 9.43109313604631 22.008555592918313 9.43007022259462 0 -1 0
302 1 11.004302641771348 1.567954705247507 11.003364535613473 0 0 0
303 1 12.576459268088746 22.008034966223867 9.42987460903116 0 -1 0
304 1 14.149866679528941 1.5663977746786213 11.00332734051168 0 0 0
305 1 15.722220098689537 22.0072014425862 9.430096494205154 0 -1 0
306 1 17.29609182124195 1.5669633548068997 11.002690954618831 0 0 0
307 1 18.866733295503764 22.007309927800804 9.430248946589963 0 -1 0
308 1 20.438692478409656 1.5687702072971978 11.002950702731333 0 0 0
309 1 22.00950129695862 3.1408730102087064 9.430204967119918 -1 0 0
310 1 1.570192785497267 4.712585070683158 11.002622717174942 0 0 0
311 1 3.1411044562364125 3.1404848039371704 9.429784461868783 0 0 0
312 1 4.710497908485408 4.710009746512603 11.001553011598022 0 0 0
313 1 6.283883629247544 3.137752080060778 9.42860993785499 0 0 0
314 1 7.855156978993461 4.703942914358437 11.00087687171372 0 0 0
315 1 9.430483525818891 3.136978527501276 9.428594454968032 0 0 0
316 1 11.004999291981512 4.701827586050984 11.004460356799989 0 0 0
317 1 12.577008920646541 3.135708025746782 9.427994619878612 0 0 0
318 1 14.155032658219543 4.69711016120161 11.000870498324431 0 0 0
319 1 15.725389020596657 3.1339770966683447 9.42758883568449 0 0 0
320 1 17.301093939037564 4.706162846196721 11.001287965877495 0 0 0
321 1 18.868538379234238 3.1388702781241062 9.429343571937691 0 0 0
322 1 20.440205811549827 4.71163918090684 11.002629317327093 0 0 0
323 1 22.00930812592797 6.285619693969417 9.430238172811695 -1 0 0
324 1 1.569374557282562 7.858405584927966 11.003135524104156 0 0 0
325 1 3.138264105548445 6.284438790835566 9.429053206693766 0 0 0
326 1 4.7065442689807915 7.855824080325412 11.00197569230494 0 0 0
327 1 6.27213058757516 6.273186595638876 9.418683507789044 0 0 0
328 1 7.825222756042402 7.821407314346172 10.971300319509693 0 0 0
329 1 9.422925035276656 6.269406187144724 9.416796313134014 0 0 0
330 1 10.96902717820032 7.800313651209063 10.985056831372363 0 0 0
331 1 12.578366495337788 6.268727718295171 9.420098670600382 0 0 0
332 1 14.216579581897859 7.788764703873919 10.940488379948922 0 0 0
333 1 15.745778627139591 6.260829460828472 9.408319024466428 0 0 0
334 1 17.308207843097488 7.852477892757315 11.000886775710304 0 0 0
335 1 18.87245441873449 6.282393766674681 9.427846161098572 0 0 0
336 1 20.43989462203132 7.857992838740389 11.003312500636456 0 0 0
337 1 22.0075308938756 9.431236707679215 9.430486802453109 -1 0 0
338 1 1.5689122702658145 11.003343039497864 11.003142919309095 0 0 0
339 1 3.1371727061117967 9.43103676661948 9.428877182287833 0 0 0
340 1 4.709588621116207 11.003182902764433 11.001834334529676 0 0 0
341 1 6.269481423351943 9.429053018450984 9.421957714261701 0 0 0
342 1 7.84373424854782 11.019593839653869 10.973062449735592 0 0 0
343 1 9.374537733633959 9.394848163505639 9.391406958939676 0 0 0
344 1 10.95283173289998 11.088768096712304 10.638988668098497 0 0 0
345 1 12.619813953622028 9.39689563767108 9.375051724531483 0 0 0
346 1 14.149857620977402 11.029651670161257 10.991660084961302 0 0 0
347 1 15.726754020732345 9.433260014958883 9.427824098000883 0 0 0
348 1 17.29196101453362 11.002441111949913 11.005431877060625 0 0 0
349 1 18.866913413578214 9.431555072245162 9.429962369362899 0 0 0
350 1 20.436394073178416 11.003032693387416 11.00366249807501 0 0 0
351 1 22.007342433238136 12.575801771430022 9.430752030407831 -1 0 0
352 1 1.5687740451306265 14.148966336715013 11.002988276613756 0 0 0
353 1 3.1367027175325957 12.57683960656943 9.4292828183422 0 0 0
354 1 4.7072835751301465 14.15208278956749 11.00186979071022 0 0 0
355 1 6.266074964617457 12.585267860600558 9.419243702015283 0 0 0
356 1 7.838819717123383 14.169735200561732 10.992758214851913 0 0 0
357 1 9.36738322855691 12.639026273446444 9.369938406313697 0 0 0
358 1 10.989746592075832 14.17215794747679 10.975446066235026 0 0 0
359 1 12.620135949472115 12.632860724015996 9.393121399769045 0 0 0
360 1 14.185407653151435 14.187788891834636 10.97556353573582 0 0 0
361 1 15.735019676955478 12.583453164143778 9.422924614942632 0 0 0
362 1 17.30286415858301 14.153356596917309 11.001751643385598 0 0 0
363 1 18.867477692519824 12.575812355568798 9.430585655487516 0 0 0
364 1 20.438682371742647 14.148876760225736 11.00322020439787 0 0 0
365 1 22.00843221551616 15.721317935684432 9.430430191097672 -1 0 0
366 1 1.569898138243239 17.29373569008889 11.002880705154922 0 0 0
367 1 3.138588361607294 15.722895002554152 9.42952361993017 0 0 0
368 1 4.711274195198368 17.296066849416285 11.002244509607571 0 0 0
369 1 6.276790545799262 15.73060108306693 9.42448883010141 0 0 0
370 1 7.855189892984301 17.300713549673787 11.001751675863893 0 0 0
371 1 9.421988139274028 15.7420054060482 9.419014076631361 0 0 0
372 1 11.004118051846573 17.300288239030497 11.001494909569642 0 0 0
373 1 12.579166780434306 15.73956394317789 9.421629196913031 0 0 0
374 1 14.151972261503756 17.302742828092086 11.002181827782266 0 0 0
375 1 15.73419412308282 15.735769521321956 9.419522431497871 0 0 0
376 1 17.297439339771284 17.297173920783543 11.002145010348539 0 0 0
377 1 18.8693738987795 15.723326006624303 9.429142528691534 0 0 0
378 1 20.438541005879085 17.293876450076667 11.002919649778553 0 0 0
379 1 22.008877077239788 18.865205642642135 9.430501177898638 -1 0 0
380 1 1.5707323531321786 20.436596204951805 11.003000045912032 0 0 0
381 1 3.1410956522036044 18.866101617269173 9.430170516726252 0 0 0
382 1 4.713444125999687 20.437444813221372 11.002745607710635 0 0 0
383 1 6.284161265665783 18.868750903244095 9.429318301661663 0 0 0
384 1 7.858143479784039 20.438560665855533 11.002835022035402 0 0 0
385 1 9.430158670127257 18.870898990981633 9.428810495915096 0 0 0
386 1 11.003993739279961 20.438375283283982 11.002993417856375 0 0 0
387 1 12.576595629017698 18.87064198141671 9.428515694089235 0 0 0
388 1 14.149387278780411 20.43815668183697 11.003209371369795 0 0 0
389 1 15.723415699823706 18.86937328319266 9.429072830368778 0 0 0
390 1 17.29510545123701 20.43717612458733 11.002863082916603 0 0 0
391 1 18.867042097165506 18.866148743690868 9.430037937385116 0 0 0
392 1 20.4381151850126 20.43641413400179 11.003060281694712 0 0 0
393 1 22.00952394653964 22.007492965794246 12.575602180765479 -1 -1 0
394 1 1.5711605364832368 1.5692758955042125 14.148114976543935 0 0 0
395 1 3.1422919029105905 22.007757382283604 12.575443695983598 0 -1 0
396 1 4.713531213059504 1.568661519791203 14.148235966617271 0 0 0
397 1 6.285858384928942 22.00784483230765 12.575456050680398 0 -1 0
398 1 7.858228303254999 1.5676750116999936 14.14863755916237 0 0 0
399 1 9.431413157364213 22.00815913541365 12.57583926992477 0 -1 0
400 1 11.004535396858593 1.5701054334922047 14.148331306210698 0 0 0
401 1 12.576637783674292 22.007740586917404 12.5760523804392 0 -1 0
402 1 14.150291041033785 1.5660878906461253 14.149104977680208 0 0 0
403 1 15.722922860632476 22.006725636120713 12.57595252544854 0 -1 0
404 1 17.296413295090773 1.5666807317590004 14.149299041235462 0 0 0
405 1 18.86712570288367 22.007004096718564 12.57580144533878 0 -1 0
406 1 20.438988242100322 1.5686029304049647 14.148523735426183 0 0 0
407 1 0.00041655606270474363 3.140538997345967 12.57562830055842 0 0 0
408 1 1.5704965225278427 4.712476337297605 14.148409578311991 0 0 0
409 1 3.141495352785418 3.140227251074026 12.575402513743501 0 0 0
410 1 4.710443249404416 4.709883877295451 14.149162133509455 0 0 0
411 1 6.28392537766987 3.1377159389100395 12.575402856322798 0 0 0
412 1 7.853480657120493 4.702397068233556 14.151637864462476 0 0 0
413 1 9.430586354452563 3.1381310583882227 12.577032922186142 0 0 0
414 1 11.006269914390717 4.71576279213799 14.147115144705223 0 0 0
415 1 12.578204236376633 3.1395529163665374 12.5772238342405 0 0 0
416 1 14.156564553444573 4.696544039378815 14.153429491326069 0 0 0
417 1 15.72684178844371 3.133966192843958 12.576308136057254 0 0 0
418 1 17.302070393610716 4.705603318066949 14.151633651535226 0 0 0
419 1 18.869180219753982 3.138383678134896 12.57594569815554 0 0 0
420 1 20.440780823276324 4.711393417150345 14.149107559219061 0 0 0
421 1 0.0005408303170788818 6.284919442992584 12.575668914302618 0 0 0
422 1 1.5698084273301762 7.85830137066716 14.147998352456698 0 0 0
423 1 3.1389841823973503 6.283611140424896 12.57530971931798 0 0 0
424 1 4.705742149119917 7.855478430297157 14.148963294345707 0 0 0
425 1 6.276240269794484 6.276124366407197 12.574950341386035 0 0 0
426 1 7.819256791578786 7.81748824529402 14.181696460563321 0 0 0
427 1 9.420256971751783 6.27605639584809 12.581527274755935 0 0 0
428 1 10.98832874131547 7.867320458424384 14.159273689362982 0 0 0
429 1 12.593218748978805 6.291666307831809 12.579370511441807 0 0 0
430 1 14.219452087108012 7.785896974596147 14.222291915768324 0 0 0
431 1 15.739978834026692 6.267800240327835 12.577610660600035 0 0 0
432 1 17.31017789331914 7.851838639282833 14.153040403741981 0 0 0
433 1 18.87308890144804 6.281097804114435 12.57619955007813 0 0 0
434 1 20.440985542235904 7.857733673447345 14.148683225173496 0 0 0
435 1 22.008823480516643 9.431088843664776 12.575722741301528 -1 0 0
436 1 1.5699513070844062 11.003341538160084 14.14781801166678 0 0 0
437 1 3.142053103900804 9.430956942717648 12.575358228133526 0 0 0
438 1 4.711328072804654 11.003242381867521 14.148297731862792 0 0 0
439 1 6.292601147199499 9.428128479791814 12.57578651644789 0 0 0
440 1 7.849060835212599 11.022149136450658 14.176662558757776 0 0 0
441 1 9.200396730062645 9.355984966599891 12.584763331768706 0 0 0