LAMMPS data file via write_data, version 2 Aug 2023, timestep = 24, units = metal

691 atoms
3 atom types

0 22.009546999999998 xlo xhi
0 22.009546999999998 ylo yhi
0 22.009546999999998 zlo zhi

Masses

1 183.84
2 1.008
3 4.0026

Atoms # atomic

1 1 0.0003409923814978685 22.008405675481864 22.008885145109815 0 -1 -1
2 1 1.571474362544724 1.5697172914128374 1.5708534836181542 0 0 0
3 1 3.1432050466122154 22.00840588786921 22.00891357458908 0 -1 -1
4 1 4.715096486897005 1.5695552980351914 1.5706390745846683 0 0 0
5 1 6.287511818359128 22.00840635612033 22.008709163562525 0 -1 -1
6 1 7.859822974836858 1.5694776519419444 1.5704701110798724 0 0 0
7 1 9.432426137128566 22.00840662124722 22.00867143317945 0 -1 -1
8 1 11.00508237422668 1.569424467946687 1.5704423568319346 0 0 0
9 1 12.577641835677715 22.008406614097638 22.00873277194452 0 -1 -1
10 1 14.15045464310548 1.5693527142879733 1.570560099252532 0 0 0
11 1 15.722764189210316 22.008406346236956 22.008844176771284 0 -1 -1
12 1 17.295412323663033 1.5693844811979678 1.570776167797112 0 0 0
13 1 18.867231673633228 22.00840592325065 22.00906082443092 0 -1 -1
14 1 20.439019371076487 1.569692076787365 1.5709353148843122 0 0 0
15 1 0.00045589457524727916 3.1412629986471785 22.00922814702618 0 0 -1
16 1 1.571311718192581 4.713218975044925 1.571023945932916 0 0 0
17 1 3.1422432113890317 3.140422044215771 1.132134582768457e-05 0 0 0
18 1 4.713583833530429 4.711778677648247 1.5706641438272169 0 0 0
19 1 6.286832535883488 3.1402049868639774 22.00932163523326 0 0 -1
20 1 7.859076725371551 4.7114693733438395 1.5703753765282111 0 0 0
21 1 9.432235444168263 3.140104936959812 22.00922625441504 0 0 -1
22 1 11.005256340416542 4.711273930670195 1.5703330337742214 0 0 0
23 1 12.578004022409036 3.1399316563091584 22.009323951168984 0 0 -1
24 1 14.151609519006351 4.7110899230906575 1.5705270723899503 0 0 0
25 1 15.723733079734318 3.13977202071025 3.1687129067639866e-05 0 0 0
26 1 17.297368617397705 4.71131458160621 1.570899939715329 0 0 0
27 1 18.868379731484307 3.140173878617637 0.00013183264309358906 0 0 0
28 1 20.439488698928738 4.71307976616005 1.5710571057313931 0 0 0
29 1 0.0006029538653193371 6.285569549246484 22.00945480419557 0 0 -1
30 1 1.5713297254266214 7.8581310708318295 1.5712131806142333 0 0 0
31 1 3.141853403186193 6.284942849914822 0.0004685552077904391 0 0 0
32 1 4.713418674979183 7.857416511475558 1.570989282571479 0 0 0
33 1 6.284875459100001 6.283083035748051 0.001946664860020476 0 0 0
34 1 7.858008613878795 7.856092655432627 1.5703649642501691 0 0 0
35 1 9.431783775226776 6.282885220141084 0.001428355989152651 0 0 0
36 1 11.00552436564267 7.855717839298058 1.5702445362139716 0 0 0
37 1 12.579024551260947 6.282609134064994 0.0017245881703992062 0 0 0
38 1 14.153462482090893 7.855567733762102 1.5707080006859575 0 0 0
39 1 15.72653282219011 6.282232282027186 0.0025643619062596023 0 0 0
40 1 17.2980099878457 7.856968122895834 1.5710511798186708 0 0 0
41 1 18.86912405530489 6.284612112275321 0.0005011290591884374 0 0 0
42 1 20.439740980307377 7.858010902398146 1.5711874560436927 0 0 0
43 1 0.0006709004446209419 9.430832609266227 0.0001202247284819966 0 0 0
44 1 1.57134798918844 11.003634016391274 1.5712869105077625 0 0 0
45 1 3.1417931957719207 9.430625551520933 0.0007375429428460436 0 0 0
46 1 4.713412940216198 11.00363346784398 1.5711684104583692 0 0 0
47 1 6.2848957426258965 9.430104525768245 0.0021065209243009628 0 0 0
48 1 7.858048582750487 11.003632959241056 1.5705725196484315 0 0 0
49 1 9.431235240157877 9.429122471563689 0.003871589144654011 0 0 0
50 1 11.00574757973397 11.00363286232676 1.5702658298910803 0 0 0
51 1 12.580459940220049 9.428894674274279 0.0049219230806771585 0 0 0
52 1 14.153825986380932 11.003633117006695 1.5708212936519985 0 0 0
53 1 15.726951702846623 9.429681044780438 0.0026040609852081963 0 0 0
54 1 17.298154755061574 11.003633452518061 1.571118914685493 0 0 0
55 1 18.869346913346472 9.430488243056375 0.0006837357177917634 0 0 0
56 1 20.439788459047108 11.003633987279002 1.5712495312669486 0 0 0
57 1 0.0006708375016104278 12.576434739577103 0.00011974988610633675 0 0 0
58 1 1.5713298451861624 14.149136464737753 1.571212349839195 0 0 0
59 1 3.1417932978739653 12.57664146209864 0.0007369436219791724 0 0 0
60 1 4.7134189374368685 14.14985021601937 1.570988184972645 0 0 0
61 1 6.284895936010997 12.57716166612292 0.002105872284503772 0 0 0
62 1 7.858008790666016 14.151173428466173 1.570363869378005 0 0 0
63 1 9.431235312861347 12.578143343477548 0.0038711233002378938 0 0 0
64 1 11.005524435290848 14.151548169632758 1.5702435309224727 0 0 0
65 1 12.58045998340637 12.578371442486599 0.004921595919560734 0 0 0
66 1 14.153462620015299 14.151698635273176 1.5707070427067649 0 0 0
67 1 15.726951709875783 12.577585382500159 0.002603551967521065 0 0 0
68 1 17.298009866058948 14.150298815638331 1.5710502773792847 0 0 0
69 1 18.869346789570255 12.576778680263766 0.0006832444486697014 0 0 0
70 1 20.439740873048272 14.149256698910664 1.5711866564930088 0 0 0
71 1 0.0006029262062683189 15.721696771523382 22.009453385292364 0 0 -1
72 1 1.5713119691567083 17.294047308140946 1.571022661075492 0 0 0
73 1 3.1418536831478088 15.722323364917367 0.0004670966517794797 0 0 0
74 1 4.7135842948156395 17.29548760506116 1.5706627932788508 0 0 0
75 1 6.284875864721745 15.724183057518475 0.001945356058955986 0 0 0
76 1 7.859077087801817 17.29579701169376 1.5703741258711656 0 0 0
77 1 9.431783904943401 15.724380782369765 0.0014272551992638757 0 0 0
78 1 11.005256370404062 17.295992449599265 1.5703319493960772 0 0 0
79 1 12.579024457478999 15.724656981302969 0.0017235275837391216 0 0 0
80 1 14.15160923313059 17.296176572237652 1.5705259812623933 0 0 0
81 1 15.726532659644668 15.725034190656562 0.0025632698787999937 0 0 0
82 1 17.297368203296195 17.29595208203969 1.5708987674187858 0 0 0
83 1 18.869123860497748 15.722654341042182 0.0004998365428430747 0 0 0
84 1 20.439488594697252 17.294186688459412 1.5710559404353597 0 0 0
85 1 0.00045593779715932575 18.866001969773144 22.009226802655583 0 0 -1
86 1 1.571474496427492 20.43754790260969 1.5708528412460925 0 0 0
87 1 3.142243480748299 18.866843159176018 1.0081972410031448e-05 0 0 0
88 1 4.715096698276389 20.437710529552565 1.570638451719739 0 0 0
89 1 6.286832915917376 18.867060805132702 22.009320623021516 0 0 -1
90 1 7.859823136335145 20.43778880812034 1.5704695925828778 0 0 0
91 1 9.432235665907141 18.86716123982867 22.009225436160147 0 0 -1
92 1 11.005082358890606 20.437842202499215 1.5704420079205605 0 0 0
93 1 12.578003809182256 18.867334528447362 22.009323150765418 0 0 -1
94 1 14.150454457576654 20.437913773066015 1.5705595630304656 0 0 0
95 1 15.723732762868037 18.867493988116085 3.059654060478518e-05 0 0 0
96 1 17.295412078746896 20.43788152681299 1.5707756191313882 0 0 0
97 1 18.868379572303034 18.86709155988897 0.0001305827347074511 0 0 0
98 1 20.43901932924093 20.437573312791983 1.5709347138420338 0 0 0
99 1 0.00035506299039415553 22.008406381063402 3.142504138973842 0 -1 0
100 1 1.5711095609205414 1.569589993059124 4.713886924103967 0 0 0
101 1 3.1431192324037243 22.008406507445073 3.1421302009366734 0 -1 0
102 1 4.714507659703342 1.5690235293134138 4.713292912928339 0 0 0
103 1 6.287431749634288 22.008406766545455 3.1419474896206916 0 -1 0
104 1 7.859609900487378 1.5689956464436223 4.713114048647594 0 0 0
105 1 9.432447144374223 22.008406983171422 3.141777032644883 0 -1 0
106 1 11.005117214594803 1.568976255153947 4.712971675277027 0 0 0
107 1 12.577761394904089 22.00840696943402 3.1418102060617077 0 -1 0
108 1 14.150702171227046 1.5688385523212247 4.713189358270843 0 0 0
109 1 15.72291394060844 22.008406895081816 3.1420407488787596 0 -1 0
110 1 17.295908714772214 1.5688628532174898 4.713392887714093 0 0 0
111 1 18.867297388499612 22.008406601154586 3.1422342739719133 0 -1 0
112 1 20.438954321115304 1.569600839693033 4.714089139657008 0 0 0
113 1 0.0004733234627070196 3.1413005601017105 3.142311949274885 0 0 0
114 1 1.5706346599447618 4.7127575340110885 4.713416318752885 0 0 0
115 1 3.14213569736069 3.1403739302471236 3.141557050208318 0 0 0
116 1 4.711548099500068 4.7098278396188995 4.710228929541126 0 0 0
117 1 6.2867009023939815 3.1400266814809674 3.141262377254209 0 0 0
118 1 7.858295749229997 4.709752469471513 4.7103086354037185 0 0 0
119 1 9.432245425502195 3.1399071758703068 3.141097507268944 0 0 0
120 1 11.005403553823758 4.709658429410551 4.710070135987678 0 0 0
121 1 12.578161841581254 3.1397535458711388 3.1411288659684184 0 0 0
122 1 14.152637972584506 4.709200670478931 4.710189569561696 0 0 0
123 1 15.723904804678508 3.1396942982127283 3.1413245240104426 0 0 0
124 1 17.299233631729923 4.709413798898638 4.710488135733687 0 0 0
125 1 18.86845222093577 3.140197270238894 3.1417385549232444 0 0 0
126 1 20.439839191626533 4.712640897679078 4.713523809889752 0 0 0
127 1 0.0006818401909594284 6.285654638720433 3.14240424834033 0 0 0
128 1 1.5708646472442318 7.858049512312859 4.713534344951066 0 0 0
129 1 3.141906262086653 6.2850157008867376 3.141641250287925 0 0 0
130 1 4.711911596554516 7.856811443220753 4.710795870873463 0 0 0
131 1 6.284651912312892 6.282826578305719 3.13903629535208 0 0 0
132 1 7.85535884125045 7.853286386510087 4.703697254504027 0 0 0
133 1 9.431768435979427 6.282562679757692 3.1389824032631837 0 0 0
134 1 11.00591050233631 7.853475120604538 4.704280961414349 0 0 0
135 1 12.579237081450017 6.282313739353779 3.1389550792725394 0 0 0
136 1 14.15670891737625 7.852432776785467 4.703341943204817 0 0 0
137 1 15.72661817525407 6.282216161913373 3.1391162633190333 0 0 0
138 1 17.299679242334985 7.856130339406459 4.710560374991647 0 0 0
139 1 18.8691853590328 6.2846706535972565 3.1416554173330544 0 0 0
140 1 20.440081235078356 7.857889428068549 4.713522755181095 0 0 0
141 1 0.0007728547736610726 9.430878003029902 3.142415029302457 0 0 0
142 1 1.5709571470880042 11.003634198034414 4.713498746932925 0 0 0
143 1 3.141971889814833 9.430696719224287 3.1418107424834596 0 0 0
144 1 4.712177661439461 11.003633746112838 4.711013400618153 0 0 0
145 1 6.284885544782512 9.430102262299116 3.1396903651190424 0 0 0
146 1 7.856414193727674 11.003633524453555 4.705703783374165 0 0 0
147 1 9.431209092470914 9.429058879254587 3.1363291874718877 0 0 0
148 1 11.00654836992972 11.00363364230883 4.69751183425818 0 0 0
149 1 12.580600319266294 9.428785779897506 3.1361510325976485 0 0 0
150 1 14.156243117692577 11.003633663521487 4.704310959910742 0 0 0
151 1 15.72696034358241 9.429685398125816 3.1393704336508925 0 0 0
152 1 17.29954881223753 11.003633706326783 4.710541653742098 0 0 0
153 1 18.86936400828503 9.43051823019932 3.1417008521814345 0 0 0
154 1 20.44007608872103 11.003634114894886 4.713443100909348 0 0 0
155 1 0.0007728472317322099 12.576390462695622 3.1424147409473484 0 0 0
156 1 1.5708648201159432 14.149218614915373 4.713533804616705 0 0 0
157 1 3.1419719697257014 12.576571041494445 3.1418103094775476 0 0 0
158 1 4.711911714981955 14.150455993110674 4.710794809333586 0 0 0
159 1 6.284885607783942 12.577164336062674 3.139689670851899 0 0 0
160 1 7.855358667736904 14.153980846866293 4.703695897226356 0 0 0
161 1 9.431209134557822 12.578207396559147 3.136328401668316 0 0 0
162 1 11.005910534994719 14.153792363773444 4.704279449311342 0 0 0
163 1 12.580600405702564 12.578480705538174 3.136150264905775 0 0 0
164 1 14.156709189606516 14.154834630701465 4.70334056287926 0 0 0
165 1 15.726960458753636 12.577581336284375 3.139369796976578 0 0 0
166 1 17.29967930074193 14.151137160319077 4.7105593187043695 0 0 0
167 1 18.869364017146623 12.576749474840328 3.1417003749624746 0 0 0
168 1 20.440081211998976 14.149378747542086 4.713522112443978 0 0 0
169 1 0.0006819128942147834 15.72161305567748 3.14240345863405 0 0 0
170 1 1.5706350266246698 17.294509772687324 4.7134155207602335 0 0 0
171 1 3.1419066152005546 15.72225154069824 3.1416401110449033 0 0 0
172 1 4.711548546359319 17.29743934650819 4.710227700655695 0 0 0
173 1 6.2846521726992 15.724440152673997 3.139034860660355 0 0 0
174 1 7.8582959333902656 17.29751467253131 4.710307205248794 0 0 0
175 1 9.43176850585958 15.7247038894589 3.1389809287445445 0 0 0
176 1 11.005403588897716 17.297608816926072 4.710068809844641 0 0 0
177 1 12.57923712194706 15.724952928341466 3.1389536994922764 0 0 0
178 1 14.15263788451505 17.29806661051512 4.7101884600840975 0 0 0
179 1 15.726618087958455 15.725050855637726 3.139115054686091 0 0 0
180 1 17.299233302957646 17.297853646590024 4.710487215427551 0 0 0
181 1 18.869185132535303 15.72259687235654 3.141654400484256 0 0 0
182 1 20.43983915133081 17.294626648181758 4.713523122759351 0 0 0
183 1 0.0004733785925597604 18.865965849192644 3.14231116383134 0 0 0
184 1 1.5711097637255123 20.437676498761427 4.713886466435059 0 0 0
185 1 3.142136049300158 18.866892465511615 3.141556055853195 0 0 0
186 1 4.714507953807458 20.4382431343562 4.713292356162221 0 0 0
187 1 6.286701299312573 18.867239971564633 3.1412612910044277 0 0 0
188 1 7.859610079076722 20.43827147788673 4.71311355219845 0 0 0
189 1 9.432245574733868 18.86735972195336 3.141096583754547 0 0 0
190 1 11.0051172194263 20.43829101282157 4.712971288798765 0 0 0
191 1 12.578161753958751 18.867513393142623 3.1411280442367606 0 0 0
192 1 14.150702098150097 20.438428733653314 4.713188962055502 0 0 0
193 1 15.723904442717412 18.867572613473257 3.141323706307675 0 0 0
194 1 17.295908458835758 20.438404307668353 4.71339251809291 0 0 0
195 1 18.868451950675155 18.86706943150504 3.1417377773703783 0 0 0
196 1 20.43895424400142 20.43766587685349 4.714088879925243 0 0 0
197 1 0.00014226567680432128 22.008406965661063 6.286512215606249 0 -1 0
198 1 1.570992103138133 1.5696838967275444 7.858428456078491 0 0 0
199 1 3.1425476567473165 22.00840687937562 6.285779950543551 0 -1 0
200 1 4.713950445888203 1.568370969388524 7.857499472275651 0 0 0
201 1 6.287131545490056 22.008406991431986 6.285580681151604 0 -1 0
202 1 7.859652424304806 1.568254938719354 7.857593058422411 0 0 0
203 1 9.432337193069829 22.00840717305262 6.285273799366235 0 -1 0
204 1 11.004934638088837 1.5682961439692065 7.857184123412436 0 0 0
205 1 12.577743104968095 22.008407228118852 6.2853536344029886 0 -1 0
206 1 14.1503373413018 1.5680177879231378 7.8578031047488 0 0 0
207 1 15.723057974420891 22.00840729844643 6.285716388105322 0 -1 0
208 1 17.295812240152845 1.568586423693826 7.857858222854252 0 0 0
209 1 18.867341575873574 22.00840712158708 6.2860812301675715 0 -1 0
210 1 20.438585270570275 1.5697601760349544 7.858582974108932 0 0 0
211 1 5.771348236597867e-05 3.1410261435463185 6.285958426287366 0 0 0
212 1 1.5694511708655237 4.7122836166031545 7.857455825794638 0 0 0
213 1 3.140889768624442 3.1393660870128066 6.284343296562597 0 0 0
214 1 4.707995788209969 4.706455747014886 7.852072128549666 0 0 0
215 1 6.285491526092627 3.1379603792658415 6.283518513321852 0 0 0
216 1 7.856394102945389 4.704944216228904 7.852325112870675 0 0 0
217 1 9.431975274752904 3.1382823243859126 6.2834124256569535 0 0 0
218 1 11.005498468638399 4.706096672405854 7.851749192588411 0 0 0
219 1 12.578453795376031 3.138004067714278 6.283493507927015 0 0 0
220 1 14.155180849016169 4.703578579775141 7.852057233861736 0 0 0
221 1 15.725144009982293 3.1374578942456 6.2835350848762035 0 0 0
222 1 17.300728993254037 4.707692021436005 7.853926272054826 0 0 0
223 1 18.868819050928145 3.139644292182441 6.284952123489608 0 0 0
224 1 20.439618454654795 4.712553433087512 7.857879187132753 0 0 0
225 1 0.00027501341699999715 6.285377718539528 6.285709260216953 0 0 0
226 1 1.5691784919700535 7.857920089850577 7.857459355236721 0 0 0
227 1 3.1394361637541075 6.283759141744536 6.283505024685933 0 0 0
228 1 4.706125418718995 7.854276676616853 7.852032989703177 0 0 0
229 1 6.277912581391204 6.276152014598659 6.274076803765186 0 0 0
230 1 7.837396252740525 7.834749976027959 7.826612128122417 0 0 0
231 1 9.430843419142292 6.278039275484554 6.276344114973589 0 0 0
232 1 11.007463725599946 7.845481965876755 7.835569057597493 0 0 0
233 1 12.581117817869753 6.277303007311236 6.276087505697439 0 0 0
234 1 14.177551135293571 7.831558305498366 7.826757949728544 0 0 0
235 1 15.733658577132656 6.275108354963583 6.2743114515944844 0 0 0
236 1 17.304621606469876 7.853756899570855 7.852594715505908 0 0 0
237 1 18.871020760279965 6.2834644096406125 6.2837684447542195 0 0 0
238 1 20.440251659004442 7.8579719440720925 7.85778996784688 0 0 0
239 1 0.00047735540239124863 9.43085406562588 6.285579195805207 0 0 0
240 1 1.5696216268355114 11.003633670230663 7.857301655977452 0 0 0
241 1 3.1403567773515246 9.430572703066836 6.283918532156085 0 0 0
242 1 4.709008274878204 11.003633832787063 7.8532488813704955 0 0 0
243 1 6.281168133881529 9.429358142691873 6.277686712001256 0 0 0
244 1 7.852641099510252 11.003634031262091 7.841066184651103 0 0 0
245 1 9.42672643018869 9.423672140478445 6.263320734958068 0 0 0
246 1 11.00989823141665 11.00363494384691 7.800533607588681 0 0 0
247 1 12.58746211784719 9.422475757750162 6.262173445989292 0 0 0
248 1 14.164302838331912 11.003634276914443 7.835435454118375 0 0 0
249 1 15.731754709345488 9.428138133915516 6.276513826547471 0 0 0
250 1 17.302581726194845 11.00363381231383 7.852314510540874 0 0 0
251 1 18.870723259434033 9.430271286780004 6.283826807204342 0 0 0
252 1 20.440148720814122 11.003633708433187 7.857382325812125 0 0 0
253 1 0.00047746923298346814 12.57641404239299 6.285578880786336 0 0 0
254 1 1.5691786645676542 14.149347322711606 7.857458860868463 0 0 0
255 1 3.140356870527422 12.576695013810536 6.283918209734325 0 0 0
256 1 4.706125210008536 14.152990986052927 7.852032199522043 0 0 0
257 1 6.28116809091246 12.577909605253915 6.277686163286512 0 0 0
258 1 7.837395055503435 14.172519141524905 7.826611150960128 0 0 0
259 1 9.426726177179166 12.583596344301283 6.263319288715356 0 0 0
260 1 11.007463655180125 14.161787248325194 7.835567635749445 0 0 0
261 1 12.587462231259982 12.584792818713915 6.2621719893671095 0 0 0
262 1 14.177552194618695 14.17571067551041 7.826756635837377 0 0 0
263 1 15.731754849769562 12.579129655752615 6.27651308327446 0 0 0
264 1 17.304622022321343 14.153510867940106 7.85259344725143 0 0 0
265 1 18.870723354887946 12.576996427853942 6.283826248974371 0 0 0
266 1 20.44025172763068 14.149295459235256 7.857789175885958 0 0 0
267 1 0.000275226173590822 15.72189011273082 6.285708689363088 0 0 0
268 1 1.569451405763251 17.294983734970206 7.857455163935824 0 0 0
269 1 3.1394364620703112 15.723508494466419 6.283504161503431 0 0 0
270 1 4.707996447259276 17.30081120269709 7.852071667806718 0 0 0
271 1 6.277912451525369 15.731115640471044 6.274075606750516 0 0 0
272 1 7.856394267556737 17.30232321093288 7.852324287460303 0 0 0
273 1 9.430843219272608 15.72922856613168 6.276342645853604 0 0 0
274 1 11.005498637890765 17.301170833840974 7.851748234419397 0 0 0
275 1 12.581118002221082 15.729964880531183 6.276086152635065 0 0 0
276 1 14.155180684986307 17.303688709502666 7.8520566202733 0 0 0
277 1 15.733658710312353 15.73215932256314 6.274310248301804 0 0 0
278 1 17.300728375874154 17.29957500858489 7.853925661663655 0 0 0
279 1 18.871020757390763 15.723803397937289 6.283767393333921 0 0 0
280 1 20.439618265919183 17.29471400536508 7.85787832449505 0 0 0
281 1 5.780739291495797e-05 18.866241102965155 6.285957881663894 0 0 0
282 1 1.5709922510420313 20.437583048572137 7.858428084819509 0 0 0
283 1 3.1408902619833734 18.86790091830854 6.284342656920191 0 0 0
284 1 4.713950666452737 20.438896036006604 7.857499134563345 0 0 0
285 1 6.285491926856307 18.869306774479163 6.283517677361701 0 0 0
286 1 7.859652594041345 20.439012251916765 7.857592777097865 0 0 0
287 1 9.431975480886955 18.86898509131778 6.283411625438465 0 0 0
288 1 11.0049347834737 20.438971170824264 7.857183881750949 0 0 0
289 1 12.578453859413578 18.869263458102115 6.28349276539208 0 0 0
290 1 14.150337314922513 20.439249693096897 7.857802823426515 0 0 0
291 1 15.72514371695271 18.86980958054689 6.283534498786087 0 0 0
292 1 17.29581206573829 20.438680999967357 7.857857821044677 0 0 0
293 1 18.868818660287857 18.867623081613427 6.284951584318318 0 0 0
294 1 20.438585241537794 20.437507126401485 7.8585825716493805 0 0 0
295 1 22.009500829996085 22.008406964172927 9.43102241581631 -1 -1 0
296 1 1.5709076392882706 1.5697652432015068 11.00325924474119 0 0 0
297 1 3.1425617207079695 22.008406905873926 9.430737571151745 0 -1 0
298 1 4.713917323497037 1.5688262075730097 11.00301023956587 0 0 0
299 1 6.287183565483154 22.008406978022467 9.430792911488266 0 -1 0
300 1 7.859889277648654 1.5688861205421356 11.003651238182037 0 0 0
301 1 9.432640697696272 22.008407005021983 9.430902023647826 0 -1 0
302 1 11.004318717639817 1.5706381677207355 11.003862441966053 0 0 0
303 1 12.576758619884531 22.008407069948895 9.431131864845204 0 -1 0
304 1 14.14977645180159 1.568537860538928 11.003576803549572 0 0 0
305 1 15.722627782998677 22.008407113648236 9.43085628080516 0 -1 0
306 1 17.295508241225363 1.568948517598838 11.003072398941022 0 0 0
307 1 18.866989321637114 22.008407174059222 9.43085755453426 0 -1 0
308 1 20.43834843186642 1.5698292558689224 11.003288611667806 0 0 0
309 1 22.009342882812376 3.1411710226237557 9.430765334831191 -1 0 0
310 1 1.5694591224240801 4.712364350861014 11.002929044332314 0 0 0
311 1 3.1412275423219715 3.1399276997876266 9.430081246167541 0 0 0
312 1 4.70982612960129 4.70888149255451 11.001658620467682 0 0 0
313 1 6.284900651858859 3.136488691200266 9.428862753842637 0 0 0
314 1 7.856074816261389 4.704339611131075 11.001703272468225 0 0 0
315 1 9.432686887625753 3.1380228858297103 9.429383757136318 0 0 0
316 1 11.003806575998027 4.715714816258625 11.003797599738066 0 0 0
317 1 12.576985243107442 3.137476152659842 9.429865433200531 0 0 0
318 1 14.153681583898697 4.704128256156217 11.002037408111581 0 0 0
319 1 15.724692028657898 3.1370019023519067 9.429355212934215 0 0 0
320 1 17.298581666855043 4.709577932936736 11.002223857426674 0 0 0
321 1 18.86796619242142 3.1402504641956854 9.43040743211727 0 0 0
322 1 20.43900373302056 4.712601168677507 11.003072918369796 0 0 0
323 1 22.00894177328228 6.285519986523147 9.430726862870223 -1 0 0
324 1 1.5682064781248626 7.858108477038991 11.003383421589508 0 0 0
325 1 3.1370073959830744 6.2830106114017585 9.428493188277038 0 0 0
326 1 4.702225026228787 7.854244486128607 11.000971789129354 0 0 0
327 1 6.2678300381460454 6.2663658103987085 9.412909638237279 0 0 0
328 1 7.80738558362926 7.808901175990636 10.952726609702388 0 0 0
329 1 9.430908603178924 6.269162509346747 9.419402298054594 0 0 0
330 1 11.017788288151408 7.860109378797339 10.974967634217629 0 0 0
331 1 12.58384239772356 6.265439605909777 9.418866870499865 0 0 0
332 1 14.188111134548135 7.818736615545214 10.973281212969912 0 0 0
333 1 15.737759501865312 6.270677933101102 9.418607518435882 0 0 0
334 1 17.30242149977199 7.855363634674502 11.002988200851402 0 0 0
335 1 18.870801749232413 6.283831854773625 9.429654392381485 0 0 0
336 1 20.438742713695085 7.858356567825831 11.003682608728028 0 0 0
337 1 22.00878394809539 9.43126361300297 9.430851312565236 -1 0 0
338 1 1.5687160813775733 11.003632850611533 11.003728164785342 0 0 0
339 1 3.1375465601310033 9.430698391827798 9.428824756843728 0 0 0
340 1 4.705773642772615 11.003632742659002 11.004230473764137 0 0 0
341 1 6.270252706171407 9.426158187235403 9.419170473974095 0 0 0
342 1 7.818791118124194 11.003636559077021 10.967718847505903 0 0 0
343 1 9.375119425749174 9.368226247826197 9.368287267818532 0 0 0
344 1 11.060096870353087 11.003647444279467 10.479376578063194 0 0 0
345 1 12.65198944868334 9.358049227277535 9.36607184890619 0 0 0
346 1 14.150273982552461 11.003636805656297 10.971468262915009 0 0 0
347 1 15.742075551805929 9.425948813709624 9.420000849966321 0 0 0
348 1 17.293056802929616 11.003632737579652 11.004208919577811 0 0 0
349 1 18.870516025313147 9.431226304431611 9.429877507175386 0 0 0
350 1 20.43691323382837 11.003632906709027 11.003969859115541 0 0 0
351 1 22.008784009826304 12.576003090086587 9.430850893627333 -1 0 0
352 1 1.5682064124023296 14.149157808100552 11.003382508072649 0 0 0
353 1 3.137546628518331 12.576568309921305 9.428824621584784 0 0 0
354 1 4.7022249414375175 14.153022387229989 11.000970670989865 0 0 0
355 1 6.270252279159711 12.58111006954756 9.41917024739631 0 0 0
356 1 7.8073887747196355 14.198362082450016 10.952732705798997 0 0 0
357 1 9.375115969649134 12.63904571830425 9.36828289667787 0 0 0
358 1 11.017787103516824 14.147150673302168 10.974969832901927 0 0 0
359 1 12.651992441698383 12.649222957447492 9.366067643998761 0 0 0
360 1 14.188108036902666 14.188525717207957 10.973286623765983 0 0 0
361 1 15.74207671614519 12.581319780876631 9.42000009585558 0 0 0
362 1 17.30242194690095 14.151903107968138 11.00298703997175 0 0 0
363 1 18.87051618045274 12.57604048230862 9.429877091101154 0 0 0
364 1 20.438742882243936 14.148909795792157 11.003681433751089 0 0 0
365 1 22.008941781663676 15.721747018419743 9.430725871227901 -1 0 0
366 1 1.5694589781353316 17.294902242888366 11.002928052045808 0 0 0
367 1 3.137007561723526 15.724256460592349 9.42849240604234 0 0 0
368 1 4.70982607051197 17.29838528105633 11.001657686132148 0 0 0
369 1 6.267831453389435 15.740900139544909 9.412910394048358 0 0 0
370 1 7.856074662611882 17.302926705303296 11.001702421112642 0 0 0
371 1 9.43090872174301 15.738104496221922 9.41940255097546 0 0 0
372 1 11.003806746352153 17.291551595401863 11.003796374180162 0 0 0
373 1 12.58384214203388 15.741827125991868 9.418867561596397 0 0 0
374 1 14.153681872743846 17.303137650093337 11.00203683964975 0 0 0
375 1 15.737758291213348 15.736587890241285 9.4186080355807 0 0 0
376 1 17.298581614902023 17.297688641374485 11.002222718156888 0 0 0
377 1 18.870801608173373 15.72343521385794 9.4296531247969 0 0 0
378 1 20.439003461654686 17.29466541492684 11.003071584465847 0 0 0
379 1 22.009342770799577 18.866095977812087 9.43076456143596 -1 0 0
380 1 1.5709075628048474 20.437501387739363 11.00325880331121 0 0 0
381 1 3.14122767346246 18.867339272511025 9.430080625308857 0 0 0
382 1 4.71391739343639 20.438440402451167 11.00300995453425 0 0 0
383 1 6.284900870029485 18.870778234126874 9.428862227771953 0 0 0
384 1 7.859889403545565 20.43838050208941 11.003650973006188 0 0 0
385 1 9.43268706916905 18.86924409639294 9.429383252050513 0 0 0
386 1 11.004318861527192 20.436628494738677 11.003862140532734 0 0 0
387 1 12.576985468142045 18.86979075503335 9.42986500857658 0 0 0
388 1 14.149776550771493 20.438728783442365 11.003576452151187 0 0 0
389 1 15.724691911277146 18.87026497616849 9.429354575510102 0 0 0
390 1 17.295508132743237 20.438318403689298 11.003071853444744 0 0 0
391 1 18.867965983907535 18.86701679316121 9.430406526249088 0 0 0
392 1 20.438348269170817 20.437437627745442 11.003287976563126 0 0 0
393 1 22.009404914567433 22.008406668612846 12.575703724380464 -1 -1 0
394 1 1.5708847808171753 1.5697542663228725 14.148188231228652 0 0 0
395 1 3.1424924297254706 22.00840658549399 12.57573437065136 0 -1 0
396 1 4.713909980381754 1.56885865471148 14.148451305869362 0 0 0
397 1 6.286806338615047 22.008406565168976 12.575740261032598 0 -1 0
398 1 7.8598805872001165 1.5691322934311758 14.147743063035785 0 0 0
399 1 9.432566062756473 22.008406640797762 12.575735939721177 0 -1 0
400 1 11.00425417429836 1.5710176827760773 14.147460988671563 0 0 0
401 1 12.576485602767676 22.008406646682097 12.575723085740359 0 -1 0
402 1 14.149721349220522 1.5685936626335866 14.147827158696032 0 0 0
403 1 15.722730610829112 22.008406697533893 12.575700144654416 0 -1 0
404 1 17.295496594000635 1.5689329360605788 14.148316060084575 0 0 0
405 1 18.866858983354415 22.008406771784923 12.575688986319175 0 -1 0
406 1 20.438336247233845 1.5698056606993733 14.14812122490226 0 0 0
407 1 22.009224623328794 3.141180433307313 12.575730496003962 -1 0 0
408 1 1.5693872337442771 4.712315747905916 14.14863654545597 0 0 0
409 1 3.141184409085118 3.1400987845619484 12.575747216914158 0 0 0
410 1 4.709689623081721 4.708907409231199 14.14996735209229 0 0 0
411 1 6.284316784625364 3.1377550990941265 12.575768264695597 0 0 0
412 1 7.855762296101916 4.705366781915094 14.149803543739077 0 0 0
413 1 9.432312005674174 3.144524895130845 12.575859621021372 0 0 0
414 1 11.003905826701166 4.7177620091156385 14.14744705467097 0 0 0
415 1 12.576705504828977 3.1420378992067324 12.575812557298585 0 0 0
416 1 14.153881983875168 4.704230152394551 14.149624485437787 0 0 0
417 1 15.724822635920495 3.1376897398930272 12.575731532796803 0 0 0
418 1 17.298686249090956 4.709517719762623 14.149327957678604 0 0 0
419 1 18.86776248126489 3.140300012318011 12.575715225214019 0 0 0
420 1 20.439004028339017 4.712539839217774 14.148456560056582 0 0 0
421 1 22.008595783186834 6.285164392156774 12.575798693688869 -1 0 0
422 1 1.5676143206157545 7.857825794484667 14.14870435055682 0 0 0
423 1 3.1372667389181945 6.282652174612894 12.575799106960249 0 0 0
424 1 4.7003386028071015 7.853429998494386 14.15201743087111 0 0 0
425 1 6.273857894298024 6.274142090767555 12.575782574647288 0 0 0
426 1 7.803447293601277 7.812359518053582 14.198243569812643 0 0 0
427 1 9.426326182194712 6.300975647418998 12.576518967349745 0 0 0
428 1 11.021145574700673 7.870725075951951 14.175915734158709 0 0 0
429 1 12.581578805638143 6.286852049904998 12.576184727415413 0 0 0
430 1 14.190216514011116 7.81852930219625 14.180167199973331 0 0 0
431 1 15.73249678426854 6.2754742273571145 12.57587209472522 0 0 0
432 1 17.303040177267626 7.855239915543733 14.149042819767475 0 0 0
433 1 18.87000009000721 6.283300864975059 12.575799752673262 0 0 0
434 1 20.43874358604388 7.858264840683038 14.148113911972029 0 0 0
435 1 22.00773073563071 9.431216037439507 12.576001490868444 -1 0 0
436 1 1.5691676670161645 11.00363233442625 14.148428936902212 0 0 0
437 1 3.1394751003069983 9.430217906674745 12.576760653745897 0 0 0
438 1 4.710543269259753 11.00363215489165 14.149604278060169 0 0 0
439 1 6.285401918897148 9.421718307343255 12.579498194395626 0 0 0