LAMMPS data file via write_data, version 2 Aug 2023, timestep = 27, units = metal

689 atoms
3 atom types

0 22.009546999999998 xlo xhi
0 22.009546999999998 ylo yhi
0 22.009546999999998 zlo zhi

Masses

1 183.84
2 1.008
3 4.0026

Atoms # atomic

1 1 22.009541665944504 22.00884561895016 0.00046250518331167 -1 -1 0
2 1 1.5718372089475205 1.5715663497699126 1.5724388469501327 0 0 0
3 1 3.143865738961267 22.00909259459907 0.0005111898461705496 0 -1 0
4 1 4.716033432754232 1.572011226042875 1.5727720289873406 0 0 0
5 1 6.288134918908461 22.009355155961234 0.0007099412281407013 0 -1 0
6 1 7.86042109256287 1.5723954577226598 1.573280949021049 0 0 0
7 1 9.432572247981566 22.009424176447297 0.0009370305998807283 0 -1 0
8 1 11.004793976476618 1.5724253528443184 1.5736027883521373 0 0 0
9 1 12.577062345858447 22.009292241435706 0.0010823285192195964 0 -1 0
10 1 14.149204007407018 1.5721518108498924 1.573562718425101 0 0 0
11 1 15.72151673211407 22.009067202594494 0.0010071834880510072 0 -1 0
12 1 17.293654509336857 1.571732766253568 1.573134515356268 0 0 0
13 1 18.865774420405092 22.008874734413133 0.0007231695159616038 0 -1 0
14 1 20.437828544991657 1.5714525617811745 1.5726078021205385 0 0 0
15 1 0.0002498084656501427 3.143224281726354 0.0010629438805729078 0 0 0
16 1 1.5720201770790683 4.7157248438748445 1.5726598893371744 0 0 0
17 1 3.143706399032521 3.1431713563281516 0.0012901852051897355 0 0 0
18 1 4.715762203129317 4.715669707197162 1.5730438472410375 0 0 0
19 1 6.288112403495667 3.1433475110008096 0.001944386648439189 0 0 0
20 1 7.86051214471606 4.716116148139223 1.5743260999595132 0 0 0
21 1 9.432637349229639 3.1433219215767374 0.0025620499074738017 0 0 0
22 1 11.00490102066263 4.716119108985373 1.575062331550664 0 0 0
23 1 12.577239050953144 3.14315665912625 0.0027883443083680046 0 0 0
24 1 14.149400866076748 4.715812707636768 1.574797071138013 0 0 0
25 1 15.721888136276084 3.142922577912073 0.0024611800237575357 0 0 0
26 1 17.2943247884086 4.715276912725683 1.5736848805679398 0 0 0
27 1 18.866355791430585 3.1428448257185764 0.0016882171652888422 0 0 0
28 1 20.43816734559004 4.715553715805301 1.572907952634469 0 0 0
29 1 0.0005706267150226435 6.287732740618475 0.0010372952349413903 0 0 0
30 1 1.5721958751744747 7.8602696382818555 1.572353448362556 0 0 0
31 1 3.1439350503881642 6.287782371395191 0.0011298504628904204 0 0 0
32 1 4.715824238581695 7.86030789980126 1.5725264052511714 0 0 0
33 1 6.287801976413249 6.287350464818932 0.0024372331419013063 0 0 0
34 1 7.860289674490988 7.860322151405537 1.5738505428979204 0 0 0
35 1 9.432644229353667 6.287202566782889 0.0035666131907707383 0 0 0
36 1 11.004948796748177 7.860241960718927 1.575236023403101 0 0 0
37 1 12.577495888698223 6.2870065371696215 0.004091147198206373 0 0 0
38 1 14.149922679937085 7.860002592323354 1.5747468658412873 0 0 0
39 1 15.722762770996308 6.286742283677031 0.0035541766753454276 0 0 0
40 1 17.294747366892686 7.859861759582 1.5733838570123007 0 0 0
41 1 18.866794920231467 6.287315609830276 0.0018511983941580609 0 0 0
42 1 20.438424721843134 7.860103235042713 1.5726564321615701 0 0 0
43 1 0.0007201968777754432 9.432392444233386 0.0005371949944532217 0 0 0
44 1 1.572205528139249 11.004866382059655 1.5717461425900228 0 0 0
45 1 3.1441407345120513 9.432445223603882 0.00038489065778184227 0 0 0
46 1 4.715761224052538 11.004973963774683 1.5715320518193188 0 0 0
47 1 6.288050601530562 9.432349559939688 0.0009749030240315023 0 0 0
48 1 7.860056110174506 11.005090977496383 1.5719590478503145 0 0 0
49 1 9.43252137362833 9.43190557896288 0.003021807517086688 0 0 0
50 1 11.004928029376702 11.00521784894913 1.5735429840837651 0 0 0
51 1 12.577816482550315 9.431743717806732 0.0041661369473143086 0 0 0
52 1 14.150239847290521 11.00499213580253 1.5729287396097857 0 0 0
53 1 15.722967457900301 9.431890315729612 0.0026782921093157232 0 0 0
54 1 17.29486488257945 11.004864126018877 1.5723948455722943 0 0 0
55 1 18.8669068306668 9.432190637774367 0.0012696662367839354 0 0 0
56 1 20.438458664491616 11.004822997790027 1.5720572971142284 0 0 0
57 1 0.0006265745310718194 12.576931308631448 22.009469003820374 0 0 -1
58 1 1.5720481798432733 14.149369566630174 1.5712559136644875 0 0 0
59 1 3.1441308674508797 12.576946537611631 22.009138762682774 0 0 -1
60 1 4.7155680707822185 14.149658381279783 1.5706708737440866 0 0 0
61 1 6.288063947848755 12.576989524651033 22.009089440408754 0 0 -1
62 1 7.8598391501612594 14.150141354992403 1.5703840291439886 0 0 0
63 1 9.43239576804407 12.57726037044477 0.0006495508110336356 0 0 0
64 1 11.0047473697271 14.150502193051798 1.5706662557810895 0 0 0
65 1 12.577732075630491 12.577368260213914 0.001713799528771012 0 0 0
66 1 14.150118544978621 14.150363148654117 1.5709723321369946 0 0 0
67 1 15.722740849780466 12.57721420326305 0.001101282463961712 0 0 0
68 1 17.2947261896214 14.149876838130671 1.5713814310719443 0 0 0
69 1 18.86671643024661 12.577025748772673 0.00040864752789837187 0 0 0
70 1 20.438303041396303 14.149435502120436 1.5715193074049112 0 0 0
71 1 0.0003668819471981364 15.721227080976501 22.00915069673675 0 0 -1
72 1 1.5718464058888657 17.293696409712343 1.5712404779044449 0 0 0
73 1 3.1439352336008612 15.721314834121088 22.008820931857887 0 0 -1
74 1 4.7153875699189625 17.29434565678158 1.5706197732365321 0 0 0
75 1 6.287820430822595 15.721733479339475 22.008656024524313 0 0 -1
76 1 7.859878965766421 17.29475297371302 1.5704650694785565 0 0 0
77 1 9.432368150600398 15.721992148289795 22.00869387650962 0 0 -1
78 1 11.004692535340483 17.294904718733438 1.5705715687232207 0 0 0
79 1 12.577250791844351 15.72201900599499 22.00900595592371 0 0 -1
80 1 14.14964104573174 17.29475221254054 1.5707741880266497 0 0 0
81 1 15.722299151493132 15.722020793088301 22.009376967320158 0 0 -1
82 1 17.294390510006682 17.29442577780044 1.5710459331294164 0 0 0
83 1 18.866381571422547 15.721536439509405 22.00936353685063 0 0 -1
84 1 20.438031507560634 17.293737919236804 1.5714248171647114 0 0 0
85 1 8.316309947730708e-05 18.865219213230255 22.009353470351318 0 0 -1
86 1 1.5717714480407483 20.437620657315428 1.5717607203331565 0 0 0
87 1 3.143749669738668 18.865526231740873 22.009205718243322 0 0 -1
88 1 4.715821239758964 20.43808326382663 1.571691674777575 0 0 0
89 1 6.287983060668907 18.865801199835936 22.009102782849176 0 0 -1
90 1 7.860191574870157 20.438441846715246 1.5717600984067905 0 0 0
91 1 9.432470709322457 18.865932102769595 22.00911264623366 0 0 -1
92 1 11.004709750000428 20.438505921589083 1.5719050204348712 0 0 0
93 1 12.577066243100408 18.865861079067386 22.009262353698784 0 0 -1
94 1 14.149283481279966 20.43828948657901 1.5719994986578754 0 0 0
95 1 15.721660301925397 18.865701720282516 22.009387498104648 0 0 -1
96 1 17.293723462482916 20.43791502503175 1.5719820881607012 0 0 0
97 1 18.86593509249031 18.86543560160533 22.009368281451433 0 0 -1
98 1 20.437736799191462 20.43753654749958 1.5718845401109527 0 0 0
99 1 22.009414014936254 22.009458629057374 3.1440251221556013 -1 -1 0
100 1 1.5714784462791624 1.5717754861797901 4.715958997320349 0 0 0
101 1 3.143614015316581 0.0003964105881193481 3.143867909407927 0 0 0
102 1 4.715655098857679 1.5725497694283257 4.7161135734954165 0 0 0
103 1 6.2880177427071295 0.0011531382864443487 3.144114476714286 0 0 0
104 1 7.860448156559146 1.5737396811297373 4.716896019881396 0 0 0
105 1 9.432465884232592 0.0015386863900947927 3.1443807657323037 0 0 0
106 1 11.004748428615882 1.5739975839635292 4.717250498032776 0 0 0
107 1 12.576929273861975 0.0014101787231098647 3.144514126781272 0 0 0
108 1 14.149008187315479 1.573454512203457 4.717152630216108 0 0 0
109 1 15.721401709213072 0.000890887498445988 3.1444253979079915 0 0 0
110 1 17.293648932091628 1.572252292702079 4.716517898429117 0 0 0
111 1 18.865742817221154 0.00020916536796282843 3.144154395723836 0 0 0
112 1 20.43763560913956 1.5716362490529339 4.716192311394668 0 0 0
113 1 5.285433053943208e-05 3.143596057393673 3.1443152480119267 0 0 0
114 1 1.5714729892136676 4.7156240416172786 4.715929453214548 0 0 0
115 1 3.1435338323038713 3.1436712377991443 3.144161906323774 0 0 0
116 1 4.714765423242843 4.715270395985314 4.715314277502406 0 0 0
117 1 6.2883491847467345 3.1446159440256656 3.1451998979402074 0 0 0
118 1 7.8609830969391545 4.717472637138391 4.718082184148996 0 0 0
119 1 9.432732740999562 3.1451166775730313 3.146055865131394 0 0 0
120 1 11.004917506282984 4.717931085330835 4.719119814546434 0 0 0
121 1 12.576899977303762 3.144973974236181 3.1462176765230443 0 0 0
122 1 14.148841998436216 4.717187083569692 4.718360154656664 0 0 0
123 1 15.721333092243071 3.1442922875702037 3.1455878097387884 0 0 0
124 1 17.294761533617855 4.715055469034017 4.715953192041542 0 0 0
125 1 18.866095491449713 3.1434641787375672 3.1445633372655153 0 0 0
126 1 20.438091496031372 4.715486032507978 4.7161620838954414 0 0 0
127 1 0.0003008916441493961 6.2879509258580235 3.1442841120144633 0 0 0
128 1 1.5715759059631145 7.860281197416764 4.715746821837548 0 0 0
129 1 3.143627467913416 6.288073676275741 3.1441387467115818 0 0 0
130 1 4.714751116336899 7.86037043887224 4.715279813973075 0 0 0
131 1 6.2877169022106 6.288124067423976 3.1444612178890106 0 0 0
132 1 7.859620378627428 7.86092163192831 4.715396288253651 0 0 0
133 1 9.432873800305485 6.289005068869913 3.1468284902997494 0 0 0
134 1 11.0050221311163 7.861813068140863 4.719346806277961 0 0 0
135 1 12.577004256470284 6.288857448568549 3.1470604940177576 0 0 0
136 1 14.150330115705172 7.860719947256849 4.71598321062231 0 0 0
137 1 15.722249680077839 6.287796645600985 3.145143252290197 0 0 0
138 1 17.295314309555238 7.85989602847271 4.715627465851021 0 0 0
139 1 18.866502936259035 6.287738518443788 3.144559242899806 0 0 0
140 1 20.43839809401996 7.860096340915171 4.715903993840729 0 0 0
141 1 0.0004094440164689632 9.432599048609285 3.143872073511934 0 0 0
142 1 1.5714769084342533 11.005125030675918 4.715245325911082 0 0 0
143 1 3.1435616686068726 9.43273014448206 3.143603463660542 0 0 0
144 1 4.71433585956143 11.005573008830378 4.714313068838032 0 0 0
145 1 6.287407074973121 9.43292083710504 3.1435055983191993 0 0 0
146 1 7.858456671922783 11.006339063927882 4.713261938527617 0 0 0
147 1 9.432726658348608 9.433510926099807 3.145142598531103 0 0 0
148 1 11.00493110336303 11.00712937819636 4.716385413983183 0 0 0
149 1 12.577182876275028 9.433387310815558 3.1455079040610263 0 0 0
150 1 14.151630374657746 11.006041029227438 4.712975929208533 0 0 0
151 1 15.722880508302024 9.432566163269025 3.1440400573058445 0 0 0
152 1 17.29574281665797 11.005318302714493 4.7145075352118 0 0 0
153 1 18.8667981642485 9.43250415206519 3.1439988736397044 0 0 0
154 1 20.43848466005494 11.005029169516598 4.715378421405745 0 0 0
155 1 0.00033232468135812834 12.577298863692029 3.1433626740148006 0 0 0
156 1 1.571204259569504 14.149972581778238 4.714849200443725 0 0 0
157 1 3.1433572558655114 12.577509736798318 3.142872043410692 0 0 0
158 1 4.7137920436001615 14.151049522328307 4.713323822785587 0 0 0
159 1 6.28701080872101 12.578061422784153 3.1419715949429623 0 0 0
160 1 7.8578308519960105 14.153003372863674 4.710326181213921 0 0 0
161 1 9.432261120408194 12.578464368473067 3.142037315041158 0 0 0
162 1 11.004572734868283 14.15391177715435 4.710558486457333 0 0 0
163 1 12.577476182039117 12.578519299206846 3.1420171908001717 0 0 0
164 1 14.151871592814778 14.153139000915823 4.710200913702125 0 0 0
165 1 15.723105934237772 12.578103707752552 3.142370793080276 0 0 0
166 1 17.295888565442564 14.151074911589076 4.713586878273858 0 0 0
167 1 18.866828691078375 12.577502445332867 3.1432455577358533 0 0 0
168 1 20.438395929637142 14.149951008195737 4.715001742478349 0 0 0
169 1 0.00013620588869676372 15.721842357700584 3.143131452940346 0 0 0
170 1 1.5709655566889305 17.29457159934134 4.714850545846509 0 0 0
171 1 3.143106104817525 15.722252950821673 3.142486582799619 0 0 0
172 1 4.713332472033308 17.296660280842357 4.712924397775259 0 0 0
173 1 6.28661755937194 15.72350355998947 3.1409608208961397 0 0 0
174 1 7.858711790824424 17.297337666107463 4.712692874052163 0 0 0
175 1 9.431833323658763 15.724035222001543 3.1409453088276065 0 0 0
176 1 11.004557414867586 17.297577048097544 4.71271884247383 0 0 0
177 1 12.577496128437083 15.724032231821392 3.1410785916457997 0 0 0
178 1 14.150450869119085 17.297137642380566 4.712980093820435 0 0 0
179 1 15.723068023689098 15.723628185726362 3.1413742471914774 0 0 0
180 1 17.295764030211338 17.29639310655832 4.71354674697954 0 0 0
181 1 18.866685487842282 15.722339334891249 3.1428442953343154 0 0 0
182 1 20.438148849315926 17.294481206317762 4.715082890703928 0 0 0
183 1 22.009472626042626 18.8660028453013 3.143366565985633 -1 0 0
184 1 1.5712666165262648 20.438102271978597 4.715564439614632 0 0 0
185 1 3.1430761013479485 18.866690085814525 3.1427970489407593 0 0 0
186 1 4.715017740326753 20.43934904012215 4.715057423035877 0 0 0
187 1 6.287389833811787 18.867382385406106 3.1425237240701964 0 0 0
188 1 7.859741227181848 20.440194427998282 4.7150767405881195 0 0 0
189 1 9.432150496104565 18.867766795863258 3.1425276462418235 0 0 0
190 1 11.004606851160826 20.440359130771025 4.715201892970451 0 0 0
191 1 12.577117117727626 18.86768308880166 3.1426657569187 0 0 0
192 1 14.14946171913891 20.439904465004105 4.715349537595741 0 0 0
193 1 15.721988454555927 18.86723220434018 3.142876437880866 0 0 0
194 1 17.294062943066137 20.438989046576804 4.7154798204625195 0 0 0
195 1 18.866278629102176 18.866547778596946 3.143157714129602 0 0 0
196 1 20.43759165623086 20.437921673895847 4.715816142601731 0 0 0
197 1 22.00906338271819 22.00942802685745 6.288154080408743 -1 -1 0
198 1 1.571047400323458 1.5714373418785728 7.860275051253591 0 0 0
199 1 3.142941862749652 0.0004736046958529912 6.287707464465283 0 0 0
200 1 4.714637571849622 1.5717279449076067 7.859829328072746 0 0 0
201 1 6.287475183110095 0.0019647425791139246 6.287777669804332 0 0 0
202 1 7.860140609695754 1.5737161900539196 7.8607629213467405 0 0 0
203 1 9.432351958760139 0.0029277905770404345 6.288094263259337 0 0 0
204 1 11.004840012753224 1.5747073795354989 7.861314801641218 0 0 0
205 1 12.576983629785854 0.00268504013594793 6.288242941908829 0 0 0
206 1 14.149309896838407 1.5732517527351726 7.86109855249597 0 0 0
207 1 15.721616659600135 0.0014454638507452118 6.288196487763158 0 0 0
208 1 17.294111697363572 1.5713145038986756 7.86046468395273 0 0 0
209 1 18.86573228875751 4.633666080361082e-05 6.288185015097209 0 0 0
210 1 20.43749599038198 1.57123839021323 7.86053003954791 0 0 0
211 1 22.00924398808437 3.143291366211269 6.288085629691954 -1 0 0
212 1 1.5705588950479255 4.714857230525324 7.859886409395265 0 0 0
213 1 3.142718813540772 3.14322463224633 6.287570482797973 0 0 0
214 1 4.7126087596386625 4.7132936587072525 7.858196233348651 0 0 0
215 1 6.2879482429911295 3.144506764015464 6.288603201714056 0 0 0
216 1 7.8608468817369 4.716661382160695 7.86218547497105 0 0 0
217 1 9.433061429476297 3.1464426070889417 6.290131684226777 0 0 0
218 1 11.005161718290303 4.72019705615864 7.864664010939016 0 0 0
219 1 12.576694163463632 3.14626845590164 6.290274914264302 0 0 0
220 1 14.149246899999767 4.716454671596853 7.862494124153949 0 0 0
221 1 15.721512467684315 3.1441837848415517 6.289053603995561 0 0 0
222 1 17.296142895369787 4.713506694315975 7.859285493400599 0 0 0
223 1 18.866269211160308 3.143062757048193 6.288095005748898 0 0 0
224 1 20.438213190986286 4.7148374680417735 7.860221051927378 0 0 0
225 1 22.009497421044284 6.287673631575272 6.287992791737452 -1 0 0
226 1 1.5705322643611528 7.85998816162218 7.859933651252642 0 0 0
227 1 3.1421525192142106 6.287448410682788 6.287305062554576 0 0 0
228 1 4.711258078823444 7.859178376942507 7.858322613985973 0 0 0
229 1 6.284495339178796 6.28557493422301 6.284898072386838 0 0 0
230 1 7.849676474379138 7.853263170995744 7.850543890572354 0 0 0
231 1 9.434037401707577 6.291253774758925 6.2923456822244255 0 0 0
232 1 11.006082233620008 7.868470729082026 7.870678948161012 0 0 0
233 1 12.57632200653241 6.291050886969053 6.2923478448444445 0 0 0
234 1 14.159840860991585 7.853949169253629 7.852373975201372 0 0 0
235 1 15.72495021063813 6.285605617878632 6.28591686689366 0 0 0
236 1 17.298286484623425 7.858687284198144 7.858844861056526 0 0 0
237 1 18.867315248575846 6.28715868569221 6.287718169081007 0 0 0
238 1 20.438782066942437 7.859778007529801 7.8600898297581105 0 0 0
239 1 5.6324968224492414e-05 9.432559578427067 6.287644808352409 0 0 0
240 1 1.5704121162275837 11.005171644999962 7.859489236981766 0 0 0
241 1 3.1420614257491617 9.432722656343465 6.287008206740364 0 0 0
242 1 4.711102379605901 11.006071145891728 7.857198669470912 0 0 0
243 1 6.2847526502676105 9.433047384417918 6.28535046900998 0 0 0
244 1 7.851807725335804 11.008578048058286 7.851383683878406 0 0 0
245 1 9.432070375080547 9.43542968637054 6.286382390658007 0 0 0
246 1 11.00623563899489 11.013019762208158 7.867676468663277 0 0 0
247 1 12.578239707463373 9.435322301386805 6.286719508131777 0 0 0
248 1 14.159480270593665 11.007521220514654 7.849346411273659 0 0 0
249 1 15.725569910188364 9.432276626246477 6.285254271627542 0 0 0
250 1 17.29866899757234 11.00543015086292 7.857285746752145 0 0 0
251 1 18.867756724125655 9.432353569818126 6.287173336929749 0 0 0
252 1 20.438809572461484 11.004980012327943 7.85962203089935 0 0 0
253 1 22.009447918759673 12.577555016193516 6.287276884682589 -1 0 0
254 1 1.5700434982456046 14.150132428363573 7.859449868754412 0 0 0
255 1 3.1416315763760974 12.578177122117733 6.286345017252084 0 0 0
256 1 4.709841522148688 14.153045421113656 7.856665869517037 0 0 0
257 1 6.283714013576561 12.580132267929008 6.2833989783971145 0 0 0
258 1 7.843868815201967 14.168015253959018 7.842165171407783 0 0 0
259 1 9.43039871865878 12.582365557784943 6.279661556745555 0 0 0
260 1 11.004298713315643 14.163731404576998 7.846535906797222 0 0 0
261 1 12.579617706045125 12.582536888719298 6.278007442604233 0 0 0
262 1 14.165611149846484 14.167547898610609 7.84194658623008 0 0 0
263 1 15.72621355332505 12.579959084192035 6.282970371007242 0 0 0
264 1 17.298871968051916 14.152546071945924 7.85701144935819 0 0 0
265 1 18.867838412722293 12.577965699977868 6.2865150572092245 0 0 0
266 1 20.438418809711514 14.149926620349195 7.859635702743384 0 0 0
267 1 22.00915602640118 15.722246894556205 6.2872955364390375 -1 0 0
268 1 1.5701626819249104 17.294587183365678 7.859628159004377 0 0 0
269 1 3.14106618115912 15.723543946153418 6.286007105098618 0 0 0
270 1 4.712042318677864 17.29762871994173 7.857492238656586 0 0 0
271 1 6.281384578367216 15.729057964490002 6.280628917939017 0 0 0
272 1 7.85637239272617 17.302025792591092 7.855419295620128 0 0 0
273 1 9.430198662226575 15.728771624811937 6.2815847186474585 0 0 0
274 1 11.004492784683588 17.301771557937332 7.855046020254524 0 0 0
275 1 12.578792402270635 15.728485273615977 6.281576602762046 0 0 0
276 1 14.152301212570121 17.300970122539443 7.855922431647813 0 0 0
277 1 15.727521544835016 15.728580930637083 6.281384580363351 0 0 0
278 1 17.29502716332602 17.29559704755495 7.859272443842151 0 0 0
279 1 18.867755422259364 15.723288716866893 6.286436875691225 0 0 0
280 1 20.437381011205687 17.29400149215955 7.860117205375922 0 0 0
281 1 22.00891252245727 18.86612015641741 6.287767206994482 -1 0 0
282 1 1.5708106350971935 20.43792959636515 7.860107234915882 0 0 0
283 1 3.1421333736413684 18.86729996304525 6.28687807135086 0 0 0
284 1 4.714234286820664 20.439521345733176 7.859325007606289 0 0 0
285 1 6.285882486931211 18.86971916914472 6.285634017574779 0 0 0
286 1 7.85914168747852 20.441467706512643 7.859041042289977 0 0 0
287 1 9.431563715099962 18.870341977948968 6.28554578520268 0 0 0
288 1 11.004617239525263 20.44175500437424 7.8590554481927715 0 0 0
289 1 12.577475292216853 18.870045891697817 6.285692868990781 0 0 0
290 1 14.149823178364361 20.440659045344752 7.859451517611715 0 0 0
291 1 15.722934313666897 18.8690991941971 6.286203889513043 0 0 0
292 1 17.293923799391706 20.438337544218193 7.860143590502478 0 0 0
293 1 18.86610641099451 18.866595828125536 6.2876071181004205 0 0 0
294 1 20.43722616276403 20.43751114572253 7.860411111178197 0 0 0
295 1 22.008838143843032 22.00892360391271 9.432755197919525 -1 -1 0
296 1 1.570892674660926 1.5707997504418236 11.005123472301664 0 0 0
297 1 3.1425949743594117 22.009517379000812 9.432434057831227 0 -1 0
298 1 4.714291027257916 1.5707584813358144 11.004984275714166 0 0 0
299 1 6.286789181944802 0.0011551073425498013 9.432128732757446 0 0 0
300 1 7.859416430737068 1.5711248293276834 11.005217360203918 0 0 0
301 1 9.432216166849534 0.0026325946845704024 9.4323777854867 0 0 0
302 1 11.004966217135122 1.5721256447248575 11.005612091456058 0 0 0
303 1 12.577217733333704 0.0021135893043974416 9.432583243190399 0 0 0
304 1 14.149943210513102 1.5706113496334715 11.005612670192987 0 0 0
305 1 15.721858547727415 4.689817734657477e-05 9.43274001622476 0 0 0
306 1 17.29433167894185 1.5701533761352702 11.005443253712976 0 0 0
307 1 18.865607728214204 22.008797091657236 9.432878107926042 0 -1 0
308 1 20.43750542128958 1.570517261787388 11.005299981337378 0 0 0
309 1 22.009064166796236 3.1427602103108137 9.432768487316704 -1 0 0
310 1 1.5703943604319985 4.714217818193943 11.005161429166547 0 0 0
311 1 3.142159373259309 3.1425523915591023 9.43239043645382 0 0 0
312 1 4.712184538481379 4.712431851199785 11.004777505700892 0 0 0
313 1 6.2858933369171055 3.141593836550348 9.431954497735507 0 0 0
314 1 7.8564834690966405 4.708887187013489 11.00489392156497 0 0 0
315 1 9.432731681297582 3.145265196203154 9.43404880745714 0 0 0
316 1 11.00551220521027 4.714278698291327 11.00786133633946 0 0 0
317 1 12.57733963032413 3.145084840376736 9.434235904192334 0 0 0
318 1 14.152814999897625 4.710141999450007 11.00592794776815 0 0 0
319 1 15.723099661761612 3.1416988844126306 9.432777546070309 0 0 0
320 1 17.296437503278554 4.712766642530547 11.00557755461828 0 0 0
321 1 18.866446661471684 3.1423878589960488 9.432895030086415 0 0 0
322 1 20.438306993539552 4.714153000471335 11.005384050606244 0 0 0
323 1 22.009145528817058 6.2869858427678755 9.43260226140273 -1 0 0
324 1 1.569663721704122 7.859201630877254 11.005078082173112 0 0 0
325 1 3.1399165885781737 6.285922123700728 9.431523832010244 0 0 0
326 1 4.706608185830738 7.856083562787813 11.003714043701756 0 0 0
327 1 6.278038089594855 6.279378530003497 9.425902544455472 0 0 0
328 1 7.829006822276085 7.833157874592186 10.9854976183145 0 0 0
329 1 9.434921651396902 6.292778373900258 9.440913014777502 0 0 0
330 1 11.012352563315988 7.86678146780314 11.004185102938463 0 0 0
331 1 12.577180589737127 6.292456319459595 9.4403704970858 0 0 0
332 1 14.174771286028427 7.838717874565848 10.992549708228506 0 0 0
333 1 15.729786177336699 6.281139322114261 9.428459952483413 0 0 0
334 1 17.30074381177603 7.856870674739399 11.005411763487299 0 0 0
335 1 18.868535671486505 6.286112483263582 9.432371331628769 0 0 0
336 1 20.43903776591741 7.859114578500576 11.005369685383808 0 0 0
337 1 22.00927563251248 9.432386195214884 9.432565365078034 -1 0 0
338 1 1.5705396896059483 11.004759922169594 11.00489480090351 0 0 0
339 1 3.140344517632991 9.432675257621467 9.431906103120099 0 0 0
340 1 4.7130452879921325 11.005117318986981 11.00389908978603 0 0 0
341 1 6.277390704185251 9.432543478970873 9.428926098712903 0 0 0
342 1 7.8602941637807335 11.006759450194984 10.993849362654945 0 0 0
343 1 9.398968170894433 9.41253026553578 9.410198905482257 0 0 0
344 1 11.0159046519797 11.096666817572364 10.710809100531197 0 0 0
345 1 12.61260094767683 9.415669000575384 9.414022596681765 0 0 0
346 1 14.151857067377973 11.005543207515073 10.990012531618742 0 0 0
347 1 15.73272906817494 9.431370251126761 9.42916967805675 0 0 0
348 1 17.29580593778079 11.003914541050356 11.004778662403693 0 0 0
349 1 18.868854621672874 9.432190670867563 9.432275474163262 0 0 0
350 1 20.437991786685703 11.00447536481768 11.005235544045988 0 0 0
351 1 22.0089344854784 12.577173663964938 9.432410270665203 -1 0 0
352 1 1.569919768833589 14.149572540937282 11.004730445205684 0 0 0
353 1 3.140360209774928 12.577854269043668 9.431605953232074 0 0 0
354 1 4.710158540254103 14.15251261464139 11.003604276899443 0 0 0
355 1 6.276583314037295 12.581822089532201 9.4275523110781 0 0 0
356 1 7.841888875203259 14.170971339145531 10.993008959246934 0 0 0
357 1 9.386970668389909 12.628168564580132 9.393120650676542 0 0 0
358 1 11.00535505802788 14.162760428955355 10.985871226628257 0 0 0
359 1 12.624956405379404 12.627323202887807 9.386840674829223 0 0 0
360 1 14.152173886383201 14.15302052132617 11.002137463766081 0 0 0
361 1 15.732757855095297 12.580798910163304 9.426685774152041 0 0 0
362 1 17.29357984855829 14.148663673566295 11.00537811079563 0 0 0
363 1 18.868019589306435 12.577282846346613 9.432004153163849 0 0 0
364 1 20.436943346876447 14.148957284045807 11.005028370750043 0 0 0
365 1 22.008347891738563 15.721714113884243 9.432444758032057 -1 0 0
366 1 1.5701228727117833 17.293913256217937 11.004709408579771 0 0 0
367 1 3.140390488588788 15.723423908710195 9.431380102632478 0 0 0
368 1 4.7126624502690575 17.2964160619505 11.003897891283955 0 0 0
369 1 6.279906287581516 15.730423197379627 9.426531403501958 0 0 0
370 1 7.855615985287744 17.30288221684776 11.001838650203123 0 0 0
371 1 9.42789016874836 15.738188703068195 9.424898341298437 0 0 0
372 1 11.00464878145512 17.301719695652825 11.000745387928507 0 0 0
373 1 12.580954650139265 15.736444077509441 9.424616913677639 0 0 0
374 1 14.150454768717006 17.296631989686325 11.003428990334932 0 0 0
375 1 15.724109981795623 15.724789983222937 9.430740400294905 0 0 0
376 1 17.29336235471073 17.293204645693702 11.005029334347473 0 0 0
377 1 18.865959121696587 15.721718770048447 9.432578574683426 0 0 0
378 1 20.43672533827099 17.293096371392195 11.004999971230973 0 0 0
379 1 22.008501866798564 18.865581924423847 9.432587014908558 -1 0 0
380 1 1.5707022903858083 20.437291504110338 11.004921355925632 0 0 0
381 1 3.1418680198421014 18.866871861757076 9.431986583652494 0 0 0
382 1 4.714211141919847 20.438583052688347 11.004560210445124 0 0 0
383 1 6.285159244253519 18.870151668066526 9.430602303925896 0 0 0
384 1 7.85889037397078 20.440656798914716 11.004196568997836 0 0 0
385 1 9.4313017768805 18.872209285765727 9.430211025635643 0 0 0
386 1 11.00472173195569 20.440652609943836 11.004165140016859 0 0 0
387 1 12.577693056161309 18.871112651721862 9.430457071611443 0 0 0
388 1 14.149639300233325 20.43844715625124 11.004688849133943 0 0 0
389 1 15.722241410292387 18.86737724223965 9.43191654736676 0 0 0
390 1 17.29356607684095 20.4368433520575 11.005106522124898 0 0 0
391 1 18.86541524107536 18.865505526855618 9.432706518553658 0 0 0
392 1 20.43701197030044 20.436730926931983 11.00510900405899 0 0 0
393 1 22.00885466582988 22.008253370511614 12.577492951788681 -1 -1 0
394 1 1.5710166962051435 1.5702259926201763 14.150072378166096 0 0 0
395 1 3.142625820347232 22.008697735811605 12.577433422903454 0 -1 0
396 1 4.714353618644929 1.5697532341572447 14.150461054047536 0 0 0
397 1 6.28673885422402 22.00920020125416 12.57746604547258 0 -1 0
398 1 7.859324777909641 1.5689214370396514 14.150925200319918 0 0 0
399 1 9.432240125754852 0.00019774044913920907 12.577599355785027 0 0 0
400 1 11.005058055925453 1.569171588218071 14.151281017281864 0 0 0
401 1 12.577308857383644 22.00884380735006 12.57771312424604 0 -1 0
402 1 14.150292121131676 1.5683899189888557 14.151011539983575 0 0 0
403 1 15.721917135102824 22.007801696887874 12.577714687773028 0 -1 0
404 1 17.294573086865416 1.5690592291010252 14.150577630770078 0 0 0
405 1 18.865621875928117 22.007849534206734 12.5776279859576 0 -1 0
406 1 20.43767778411487 1.5699247940998446 14.15014109926781 0 0 0
407 1 22.00913777994879 3.1421391860096866 12.577796812164374 -1 0 0
408 1 1.5705763092354572 4.713768775892992 14.150600930327812 0 0 0
409 1 3.1420573697840712 3.1417388849461307 12.577842727296773 0 0 0
410 1 4.712209880652094 4.711396129622129 14.15184323013033 0 0 0
411 1 6.285492691732381 3.1398831253711648 12.578251912463939 0 0 0
412 1 7.8563169204857175 4.705448310724585 14.15421324333426 0 0 0
413 1 9.432191696505651 3.1397486071488334 12.579142029769242 0 0 0
414 1 11.005629625457008 4.7086845414262095 14.154894014804219 0 0 0
415 1 12.577976627140776 3.139936631812902 12.579372889121005 0 0 0
416 1 14.153497763282967 4.706803658955789 14.15437527291244 0 0 0
417 1 15.723642697651279 3.13992145178742 12.578701925125685 0 0 0
418 1 17.297049055729204 4.71154827273065 14.152066502528687 0 0 0
419 1 18.86672235497613 3.1414669378808435 12.578104774165993 0 0 0
420 1 20.43863382555877 4.713654101793284 14.150714077124473 0 0 0
421 1 22.009281563517003 6.286402330833389 12.57794368979321 -1 0 0
422 1 1.5703319077207092 7.858989408517713 14.15039764792232 0 0 0
423 1 3.1400846838219665 6.28510772813923 12.578158178655906 0 0 0
424 1 4.7083909552347265 7.855640442077357 14.152622244178952 0 0 0
425 1 6.279435986318499 6.27879427004251 12.579405410245363 0 0 0
426 1 7.832673630962685 7.826582244182114 14.17865619796172 0 0 0
427 1 9.428249646838315 6.273381910083585 12.58184941820434 0 0 0
428 1 11.0124450880133 7.845303782774811 14.16847147267491 0 0 0
429 1 12.581662761530252 6.275676561920989 12.582633180435657 0 0 0
430 1 14.173901682049808 7.833079111549473 14.176891572529703 0 0 0
431 1 15.728851333963743 6.2803808869241315 12.5805295730455 0 0 0
432 1 17.30045353744623 7.856368519285223 14.152744667813476 0 0 0
433 1 18.868764597661922 6.285131785498268 12.578542369218871 0 0 0
434 1 20.439249543841022 7.858863748179351 14.150545958332263 0 0 0
435 1 22.009321437236306 9.431935739877522 12.577655763558887 -1 0 0
436 1 1.571450622102336 11.004415780270858 14.149722927833185 0 0 0
437 1 3.140564864011723 9.431783913286347 12.577555176118542 0 0 0
438 1 4.71462395374032 11.004560717328205 14.149944740730216 0 0 0
439 1 6.275747810097446 9.42700689878786 12.5777729183631 0 0 0