LAMMPS data file via write_data, version 2 Aug 2023, timestep = 24, units = metal

689 atoms
3 atom types

0 22.009546999999998 xlo xhi
0 22.009546999999998 ylo yhi
0 22.009546999999998 zlo zhi

Masses

1 183.84
2 1.008
3 4.0026

Atoms # atomic

1 1 0.00023460674563344466 22.009543862824806 22.00906780359468 0 -1 -1
2 1 1.5718038982674183 1.571596270878699 1.5711739570679235 0 0 0
3 1 3.143746976545083 22.009543860590643 22.008739303759334 0 -1 -1
4 1 4.71563223039482 1.5715756398517347 1.5707938021968288 0 0 0
5 1 6.2879193358075725 22.009543898462727 22.008704528902683 0 -1 -1
6 1 7.860058481362435 1.571488125857977 1.5708921258323092 0 0 0
7 1 9.432528911665704 22.009543945482985 22.009025027737522 0 -1 -1
8 1 11.004873050321718 1.5714083665257577 1.5713527207284819 0 0 0
9 1 12.577379160449867 22.009543970720138 22.00949074273 0 -1 -1
10 1 14.149781137313514 1.5713200234477642 1.5718740253905956 0 0 0
11 1 15.722188781209594 22.009543964643125 0.0002289405846586635 0 -1 0
12 1 17.294411953659814 1.5713095344987966 1.572093804885077 0 0 0
13 1 18.866514886226337 22.009543917129488 0.0001082537233867353 0 -1 0
14 1 20.438210960129634 1.5715182320484222 1.5718028311568075 0 0 0
15 1 0.0007341930311791934 3.1433539677431646 22.00926386883541 0 0 -1
16 1 1.5723227570743104 4.715576140779295 1.5711302204844264 0 0 0
17 1 3.14378414391623 3.143311219999587 22.008890340773625 0 0 -1
18 1 4.715643618461489 4.715256634082465 1.5705345759226284 0 0 0
19 1 6.287905918410931 3.143204396452629 22.008787226623106 0 0 -1
20 1 7.860039959164694 4.714924372409419 1.5706668642840391 0 0 0
21 1 9.432561408504105 3.142945273677438 22.009220881980394 0 0 -1
22 1 11.005105173999693 4.714614157734186 1.571409331977029 0 0 0
23 1 12.577668059931565 3.1426761107267933 0.0003696974404161417 0 0 0
24 1 14.150524085827325 4.71435821949189 1.5722778802608732 0 0 0
25 1 15.722881038147971 3.142411711801326 0.0008632450986727477 0 0 0
26 1 17.295643106156696 4.714327332787867 1.5726709486460337 0 0 0
27 1 18.867333152472277 3.1426579788440456 0.0005851623276517751 0 0 0
28 1 20.43896599911696 4.7152012889577515 1.5720010884659577 0 0 0
29 1 0.0016104037749893874 6.287606556342153 22.009450409428066 0 0 -1
30 1 1.5729508042796077 7.860094728865254 1.571121452541554 0 0 0
31 1 3.1445580606076744 6.287872757199787 22.008677605565676 0 0 -1
32 1 4.7163103630613294 7.860111056639744 1.5703040928304928 0 0 0
33 1 6.288122498373086 6.28739609282159 22.008945379492896 0 0 -1
34 1 7.860508852641753 7.859756596844145 1.5703370581998919 0 0 0
35 1 9.432748763444343 6.286694909320959 0.0002855241998871176 0 0 0
36 1 11.00551088482102 7.859146557272411 1.571697183196017 0 0 0
37 1 12.578530400692795 6.286130846759004 0.0019367160017387127 0 0 0
38 1 14.151605999334178 7.858843809572053 1.5732868553869748 0 0 0
39 1 15.724911318420643 6.285503230852395 0.0030799565660203565 0 0 0
40 1 17.29653477432701 7.859109157363437 1.57315185343621 0 0 0
41 1 18.868518236483943 6.286722483835337 0.001308430239874288 0 0 0
42 1 20.43966074370346 7.8597593050426156 1.572191068992796 0 0 0
43 1 0.0022033845030755253 9.43233877164321 3.306702205372928e-05 0 0 0
44 1 1.5732097216825442 11.004770382268893 1.5711210205646022 0 0 0
45 1 3.1451587871422473 9.432481144626564 22.008529526331863 0 0 -1
46 1 4.7165818249962275 11.004770404648344 1.570250066057281 0 0 0
47 1 6.2889336310468815 9.432481918652371 22.00823937576048 0 0 -1
48 1 7.8607395405510285 11.00477042057814 1.5702534623058473 0 0 0
49 1 9.4335741338898 9.432131999435365 0.0002830367436012436 0 0 0
50 1 11.005812874172959 11.004770436671462 1.5721698342447141 0 0 0
51 1 12.579596293282675 9.43165655468608 0.004225411081506739 0 0 0
52 1 14.152214359889014 11.004770422029665 1.5736438942933235 0 0 0
53 1 15.725904958731016 9.431387288852322 0.0039354735212505584 0 0 0
54 1 17.296873278884323 11.004770382831675 1.5733104881806155 0 0 0
55 1 18.869220748411305 9.431955227683217 0.0017026049906648576 0 0 0
56 1 20.439930426502194 11.004770368310949 1.5722741165843577 0 0 0
57 1 0.002203414017492974 12.577201982278003 3.307996190132291e-05 0 0 0
58 1 1.572950848707907 14.149446021866558 1.5711214923842662 0 0 0
59 1 3.1451588096277914 12.577059653966161 22.008529536451668 0 0 -1
60 1 4.716310391363036 14.149429720298217 1.570304152270003 0 0 0
61 1 6.28893364532612 12.577058922389472 22.00823937839207 0 0 -1
62 1 7.860508826466176 14.149784251069402 1.5703371534638295 0 0 0
63 1 9.433574123665599 12.577408935669654 0.0002831434441849879 0 0 0
64 1 11.005510886906883 14.150394338660366 1.571697280585607 0 0 0
65 1 12.579596310024158 12.57788438485552 0.004225507890169104 0 0 0
66 1 14.15160604578398 14.150697056319189 1.5732869286298325 0 0 0
67 1 15.725905012929466 12.578153558530698 0.0039355400628993545 0 0 0
68 1 17.296534843713445 14.150431635353977 1.5731518963876738 0 0 0
69 1 18.86922079207593 12.577585535835308 0.0017026322925278523 0 0 0
70 1 20.439660800120762 14.149781439368128 1.572191093850578 0 0 0
71 1 0.0016104803059392217 15.721934195080873 22.009450432868274 0 0 -1
72 1 1.5723228205878537 17.293964579239358 1.5711302646090446 0 0 0
73 1 3.144558113198195 15.721667994301578 22.00867761575187 0 0 -1
74 1 4.715643635282735 17.294284108252185 1.570534651178942 0 0 0
75 1 6.288122480215482 15.722144742560655 22.00894543023719 0 0 -1
76 1 7.860039934098721 17.29461644279508 1.5706669588764683 0 0 0
77 1 9.432748739809977 15.722846014510607 0.0002856511634708166 0 0 0
78 1 11.00510516326363 17.29492672458071 1.5714094284203244 0 0 0
79 1 12.57853044744631 15.723410132013633 0.001936890828636467 0 0 0
80 1 14.150524133673345 17.295182675205766 1.5722779570388623 0 0 0
81 1 15.724911435586172 15.724037683251865 0.003080104773649262 0 0 0
82 1 17.295643196186198 17.295213511288548 1.572670998346714 0 0 0
83 1 18.868518343311393 15.722818323302382 0.0013084964213258778 0 0 0
84 1 20.43896607938919 17.294339473143072 1.5720011222932981 0 0 0
85 1 0.0007342622242998204 18.86618677480089 22.00926388306447 0 0 -1
86 1 1.571803934534226 20.437944428821577 1.571173976893141 0 0 0
87 1 3.1437841889111633 18.866229497814846 22.00889033853967 0 0 -1
88 1 4.715632233428915 20.4379650913293 1.5707938292656909 0 0 0
89 1 6.287905904083632 18.866336405638613 22.00878726977766 0 0 -1
90 1 7.860058468930756 20.438052679307734 1.5708921621344263 0 0 0
91 1 9.43256138957257 18.866595627376338 22.009220964490435 0 0 -1
92 1 11.004873043704992 20.438132506840034 1.5713527570864867 0 0 0
93 1 12.577668081240233 18.86686484457727 0.00036979665456340617 0 0 0
94 1 14.149781152055946 20.438220870712684 1.5718740571344485 0 0 0
95 1 15.72288110927787 18.867129222403697 0.0008633329629003308 0 0 0
96 1 17.294411986320966 20.438231317628286 1.5720938259817576 0 0 0
97 1 18.867333242427076 18.86688286374905 0.0005852119682634662 0 0 0
98 1 20.438210998757665 20.438022533753514 1.5718028460821738 0 0 0
99 1 22.00926170618864 22.009543847380723 3.1434085855202736 -1 -1 0
100 1 1.5708009168865318 1.5714819693923678 4.714850479701626 0 0 0
101 1 3.1432387758121867 22.009543837344623 3.1427096696665364 0 -1 0
102 1 4.714751489639682 1.5712282244938927 4.714102400675309 0 0 0
103 1 6.287528809951865 22.009543865171445 3.1424762042973065 0 -1 0
104 1 7.859564661797871 1.5711669954508196 4.71408356248446 0 0 0
105 1 9.432279924913349 22.00954390546299 3.1427308357840347 0 -1 0
106 1 11.004648810463541 1.5711643864116998 4.7145396228347645 0 0 0
107 1 12.577181981939452 22.009543933177714 3.143257901123404 0 -1 0
108 1 14.14959868642409 1.5711700551216141 4.715195578002785 0 0 0
109 1 15.721881765867565 22.009543932482714 3.143722765768079 0 -1 0
110 1 17.29403811314707 1.5712392802181387 4.7156406119469265 0 0 0
111 1 18.866018084810587 22.00954389842141 3.143805472164498 0 -1 0
112 1 20.43729047867268 1.5715760425075915 4.71574988239433 0 0 0
113 1 5.584026127092245e-05 3.1433865897646256 3.1433102317839614 0 0 0
114 1 1.5709942552007856 4.71518045205783 4.714471215477038 0 0 0
115 1 3.1431223586186836 3.143133787308935 3.142336792346236 0 0 0
116 1 4.713879384516304 4.714055475079683 4.712594962895563 0 0 0
117 1 6.287411859401199 3.1429746731368207 3.1420686670665354 0 0 0
118 1 7.859128537393635 4.713899881247038 4.712680355540881 0 0 0
119 1 9.432275964459727 3.1428244955094886 3.1423881724237015 0 0 0
120 1 11.004839828001206 4.713813708558742 4.713280146903714 0 0 0
121 1 12.577404839659355 3.1427304100121285 3.1430291957810206 0 0 0
122 1 14.150551560299382 4.713755340127733 4.714093413765654 0 0 0
123 1 15.722395200649572 3.1426914472103857 3.1436036246875685 0 0 0
124 1 17.295401340803632 4.7140129929583106 4.714927740747715 0 0 0
125 1 18.866593221007047 3.1429399312027892 3.143817960344115 0 0 0
126 1 20.4380437258387 4.715127504517834 4.7154202733721755 0 0 0
127 1 0.0006726585427486717 6.287642564709488 3.1432890081325615 0 0 0
128 1 1.571584870161897 7.8599224902936164 4.714455908289289 0 0 0
129 1 3.1436463012641833 6.287646113637492 3.1421984283998388 0 0 0
130 1 4.714708560276548 7.859634767618931 4.7128690139263165 0 0 0
131 1 6.2872970835173705 6.286996886021511 3.1410403541308205 0 0 0
132 1 7.859014044144791 7.858641037189591 4.710714979920764 0 0 0
133 1 9.432298050910674 6.286526770542843 3.1414437239110193 0 0 0
134 1 11.005099336984978 7.857985152711788 4.710991277688199 0 0 0
135 1 12.578028177470422 6.28631896736612 3.1423815145267935 0 0 0
136 1 14.151898619265161 7.857978735527739 4.712061662230664 0 0 0
137 1 15.72367338360119 6.2862326665723165 3.1433358650181282 0 0 0
138 1 17.2960200196668 7.8589771805234525 4.714743216888716 0 0 0
139 1 18.86738621928029 6.2870873223959665 3.14386469203568 0 0 0
140 1 20.438598662992128 7.85974720906371 4.715339192626934 0 0 0
141 1 0.0010938071003204143 9.432343507347912 3.1433073951700528 0 0 0
142 1 1.571795947284835 11.004770384495577 4.714449085314646 0 0 0
143 1 3.1440804365538852 9.432398868962963 3.142198160161233 0 0 0
144 1 4.714937946016661 11.004770402442288 4.713061921786654 0 0 0
145 1 6.287838790656638 9.432314357309144 3.1412869343130123 0 0 0
146 1 7.859298828673464 11.004770398923595 4.712063805873894 0 0 0
147 1 9.432800232736186 9.43218271760554 3.1413720892752774 0 0 0
148 1 11.005496603998422 11.004770472239572 4.712824252028669 0 0 0
149 1 12.578434633103754 9.431934231521108 3.142323300359567 0 0 0
150 1 14.152556109490531 11.004770467948736 4.711945186417378 0 0 0
151 1 15.724300829873915 9.431723834339955 3.1434767978674665 0 0 0
152 1 17.296265943651825 11.004770397154894 4.714734677368368 0 0 0
153 1 18.867874101737975 9.4321105976731 3.1439460006936146 0 0 0
154 1 20.438808202997983 11.004770376935243 4.715319742821992 0 0 0
155 1 0.0010938427123369486 12.577197237837584 3.143307418191461 0 0 0
156 1 1.5715849763545109 14.14961825177937 4.714456001172905 0 0 0
157 1 3.1440804681307735 12.577141904508846 3.142198205804628 0 0 0
158 1 4.714708681523718 14.149905953096788 4.712869223317453 0 0 0
159 1 6.287838812546655 12.577226436956101 3.1412870196951856 0 0 0
160 1 7.8590140418801395 14.150899787457686 4.710715165564299 0 0 0
161 1 9.432800224836132 12.57735814839784 3.1413721261137484 0 0 0
162 1 11.005099366771843 14.151555799955467 4.710991315153218 0 0 0
163 1 12.578434642627636 12.577606649500806 3.142323316846457 0 0 0
164 1 14.151898719065525 14.151562208755776 4.712061595264383 0 0 0
165 1 15.724300870257675 12.57781697996498 3.1434767981059157 0 0 0
166 1 17.296020126029777 14.150563640994106 4.714743187592216 0 0 0
167 1 18.867874140093782 12.577430150114903 3.1439460068564724 0 0 0
168 1 20.438598756837155 14.149793546334832 4.715339210352981 0 0 0
169 1 0.0006727393219410292 15.721898165963504 3.143289056572221 0 0 0
170 1 1.5709943941345021 17.29436020836213 4.714471339474363 0 0 0
171 1 3.143646376431884 15.721894601408286 3.142198543650157 0 0 0
172 1 4.713879508098578 17.295485145231304 4.71259520437 0 0 0
173 1 6.287297095452391 15.722543872878573 3.14104051057073 0 0 0
174 1 7.859128546738807 17.295640857540562 4.712680506575389 0 0 0
175 1 9.432298031760336 15.723014062471536 3.1414438335074006 0 0 0
176 1 11.004839825084314 17.295727164872556 4.713280205657221 0 0 0
177 1 12.578028205480214 15.723221919623525 3.1423815644996 0 0 0
178 1 14.15055163037404 17.29578558302781 4.7140933953643795 0 0 0
179 1 15.723673469853791 15.723308191483333 3.143335865439253 0 0 0
180 1 17.295401473853516 17.29552788257159 4.7149276980790225 0 0 0
181 1 18.867386306999656 15.722453453884896 3.1438647064765353 0 0 0
182 1 20.438043848964302 17.2944132483602 4.7154202986516065 0 0 0
183 1 5.591517678369497e-05 18.86615412204973 3.14331027385714 0 0 0
184 1 1.5708009922505237 20.438058645432204 4.714850546123031 0 0 0
185 1 3.143122422583838 18.866406879315868 3.1423368893283286 0 0 0
186 1 4.714751520747973 20.438312417722713 4.7141024629192545 0 0 0
187 1 6.287411860403682 18.866566053546713 3.142068756836495 0 0 0
188 1 7.859564658679141 20.43837374747237 4.714083607202226 0 0 0
189 1 9.432275945768914 18.866716319357867 3.1423882395247333 0 0 0
190 1 11.004648808923902 20.438376466134034 4.714539642628391 0 0 0
191 1 12.577404846765084 18.86681046019684 3.1430292312416084 0 0 0
192 1 14.149598711294736 20.43837084558657 4.715195571751547 0 0 0
193 1 15.722395251518737 18.86684941985207 3.143603640210436 0 0 0
194 1 17.294038157965396 20.438301575344237 4.71564060912613 0 0 0
195 1 18.86659329734812 18.866600872394653 3.143817971398407 0 0 0
196 1 20.437290538798884 20.43796469648149 4.715749901767254 0 0 0
197 1 22.008331265680372 22.009543834543088 6.287586357781246 -1 -1 0
198 1 1.57004662538662 1.5714337532055502 7.859176162303683 0 0 0
199 1 3.142222661147942 22.0095437719286 6.2865062295822645 0 -1 0
200 1 4.713774136001803 1.5706168241274872 7.858083119209979 0 0 0
201 1 6.286825275118365 22.009543820632313 6.2861002000968105 0 -1 0
202 1 7.859023008719251 1.5704416925464812 7.858027698177507 0 0 0
203 1 9.431965599922954 22.009543911297776 6.286312870038565 0 -1 0
204 1 11.004475901344295 1.5706490538963462 7.858525471348026 0 0 0
205 1 12.577037518335423 22.00954397185962 6.286959208539616 0 -1 0
206 1 14.149359743263751 1.5708418953653065 7.859478286698924 0 0 0
207 1 15.721603651067284 22.009543975134644 6.287664014906554 0 -1 0
208 1 17.293059636664232 1.571636830430017 7.860312553485927 0 0 0
209 1 18.865104187076202 22.009543911940774 6.288117185935504 0 -1 0
210 1 20.436370171088935 1.5717499272865165 7.860071029048424 0 0 0
211 1 22.00825657350705 3.1433272410778894 6.287336718784224 -1 0 0
212 1 1.569175218795773 4.714667478775161 7.858484073970551 0 0 0
213 1 3.1415125128937955 3.1423205521262516 6.2856880497475425 0 0 0
214 1 4.710824704844279 4.7115225521689394 7.855130095343836 0 0 0
215 1 6.2861330046353805 3.141649478140042 6.285028629502831 0 0 0
216 1 7.857268880025946 4.710673187617323 7.8551427857474545 0 0 0
217 1 9.431766085345048 3.141719599098613 6.285329609893629 0 0 0
218 1 11.004680352975022 4.711376508933315 7.855762160472687 0 0 0
219 1 12.577379763580057 3.141835197215338 6.286096480206106 0 0 0
220 1 14.151669681705812 4.711221777499504 7.8569245143296635 0 0 0
221 1 15.722508453425407 3.141914618475588 6.286870471308161 0 0 0
222 1 17.29384546209673 4.7149776432965504 7.860062820528673 0 0 0
223 1 18.865490057316578 3.143237125844009 6.287948920359044 0 0 0
224 1 20.436423489788453 4.715553556059192 7.859984232017917 0 0 0
225 1 22.008781954919584 6.287386100008179 6.286964221176103 -1 0 0
226 1 1.569286290327973 7.859414152433195 7.858182674812965 0 0 0
227 1 3.141234953550599 6.2865913478284865 6.2850845263909845 0 0 0
228 1 4.71027526701663 7.8574241851496796 7.854840967135516 0 0 0
229 1 6.283372060533534 6.283554486686599 6.280937852125596 0 0 0
230 1 7.850492671609637 7.8496647050895545 7.844718690035635 0 0 0
231 1 9.431066715137222 6.283882316297824 6.281905213498625 0 0 0
232 1 11.005734501393489 7.851765536989893 7.846409272108709 0 0 0
233 1 12.578883331490657 6.283923825418013 6.2826592614465975 0 0 0
234 1 14.160835770341146 7.848610148945557 7.84715887385317 0 0 0
235 1 15.725795396117068 6.2835913063328945 6.283934134485954 0 0 0
236 1 17.297314937308926 7.85789628067592 7.857849661628385 0 0 0
237 1 18.867036854800073 6.286718916740706 6.287087094334001 0 0 0
238 1 20.437459827414884 7.859697799421201 7.8594628035361245 0 0 0
239 1 22.00924829415611 9.432268579706344 6.286878422814683 -1 0 0
240 1 1.569768254762945 11.004770409488986 7.8581916813752235 0 0 0
241 1 3.142104445688295 9.432174835635427 6.285347500383064 0 0 0
242 1 4.711993416952224 11.004770438308919 7.855972339581068 0 0 0
243 1 6.285684928243142 9.431952325472256 6.283130195662337 0 0 0
244 1 7.857715983634412 11.004770262718273 7.854028774836611 0 0 0
245 1 9.431886719836838 9.431068554284227 6.280049132258159 0 0 0
246 1 11.007508049241762 11.004770841710526 7.857852440388143 0 0 0
247 1 12.579933898315227 9.43056435103159 6.278571498899525 0 0 0
248 1 14.158405508029942 11.004770723829894 7.84877062872058 0 0 0
249 1 15.725629226900482 9.43086672247489 6.283795922411555 0 0 0
250 1 17.297323668856855 11.004770474968982 7.857651429868493 0 0 0
251 1 18.867377759291994 9.431993158343385 6.2869170677938895 0 0 0
252 1 20.437751082014092 11.004770408110728 7.85932066932232 0 0 0
253 1 22.00924837286749 12.577272194655619 6.2868784532226965 -1 0 0
254 1 1.5692866021450578 14.150126550354159 7.858182832739785 0 0 0
255 1 3.1421045586009853 12.57736594844817 6.285347595002176 0 0 0
256 1 4.710275802426919 14.15211636546706 7.854841464959188 0 0 0
257 1 6.285685109214505 12.57758841496001 6.283130474468314 0 0 0
258 1 7.8504928716876075 14.159876097550917 7.844719362656461 0 0 0
259 1 9.431886696479902 12.578472475483649 6.280049039319389 0 0 0
260 1 11.005734656827311 14.157775966997956 7.846409379187531 0 0 0
261 1 12.579933961166613 12.578976865151487 6.278571433540309 0 0 0
262 1 14.160836285739018 14.160931389850166 7.847158497090531 0 0 0
263 1 15.725629345994957 12.57867423517987 6.283795863083386 0 0 0
264 1 17.297315203973838 14.151644704488712 7.85784958201696 0 0 0
265 1 18.867377841556053 12.577547650819096 6.286917055098071 0 0 0
266 1 20.437460033984525 14.149843000626817 7.859462827140638 0 0 0
267 1 22.008782147224423 15.722154617248162 6.286964305143919 -1 0 0
268 1 1.5691756079464743 17.294873051328025 7.8584842935461685 0 0 0
269 1 3.1412352383795423 15.722949266988758 6.2850848148006015 0 0 0
270 1 4.710825379397069 17.298017557033358 7.855130758593007 0 0 0
271 1 6.283372272597896 15.725986106259002 6.2809383139334445 0 0 0
272 1 7.8572690131536955 17.29886747834323 7.855143032320065 0 0 0
273 1 9.431066737818549 15.725658542536484 6.28190541227179 0 0 0
274 1 11.004680402844917 17.298164583204397 7.855762203612676 0 0 0
275 1 12.57888343328658 15.725617259235994 6.2826592308926905 0 0 0
276 1 14.151669877403751 17.298319400542105 7.856924435877308 0 0 0
277 1 15.725795648170427 15.72594974746664 6.2839339735916635 0 0 0
278 1 17.293845711779667 17.294563350146895 7.8600627410870345 0 0 0
279 1 18.8670370386258 15.722821915042292 6.287087063468378 0 0 0
280 1 20.43642373755739 17.293987209947915 7.8599842561493505 0 0 0
281 1 22.008256741638615 18.86621341525913 6.2873367988401725 -1 0 0
282 1 1.5700467293456846 20.438106823279483 7.859176220224585 0 0 0
283 1 3.141512756050543 18.867219922157695 6.285688291010401 0 0 0
284 1 4.713774251017541 20.438923642083473 7.858083234731881 0 0 0
285 1 6.286133068710653 18.867891131720146 6.285028790429362 0 0 0
286 1 7.859023034703274 20.439099037475202 7.858027756800489 0 0 0
287 1 9.431766092502814 18.867821232405674 6.285329678550533 0 0 0
288 1 11.004475922567169 20.438891948728024 7.8585254832688225 0 0 0
289 1 12.577379814202603 18.867705780348615 6.286096458521777 0 0 0
290 1 14.149359831869706 20.438699219786535 7.859478240839604 0 0 0
291 1 15.722508557461525 18.867626346872864 6.2868704307565695 0 0 0
292 1 17.293059730215553 20.437904129799712 7.860312524440534 0 0 0
293 1 18.865490190026822 18.866303700564355 6.287948910407444 0 0 0
294 1 20.436370261725365 20.437790833141538 7.8600710356426955 0 0 0
295 1 22.00787436795318 22.00954383632288 9.431871231683298 -1 -1 0
296 1 1.5699459065000319 1.5714485092500676 11.003744862173573 0 0 0
297 1 3.14185765102864 22.00954375555304 9.431123181753374 0 -1 0
298 1 4.713656370028289 1.5706793891058561 11.003196055739119 0 0 0
299 1 6.286420402181308 22.009543801792834 9.430742029629537 0 -1 0
300 1 7.858942784131866 1.5702503771349605 11.00330916376279 0 0 0
301 1 9.431792807745568 22.009544005182985 9.430953905222717 0 -1 0
302 1 11.00411081955464 1.570965106607507 11.003788208670644 0 0 0
303 1 12.576671134962814 22.00954414439129 9.431786557480608 0 -1 0
304 1 14.148765532576705 1.571676544773703 11.004461718076946 0 0 0
305 1 15.720873613695403 22.009544064528967 9.432434150985197 0 -1 0
306 1 17.292674080764318 1.5719000438839708 11.00453574949812 0 0 0
307 1 18.86449443674513 22.009543945833922 9.432393827392245 0 -1 0
308 1 20.436172599350346 1.5717916843812578 11.004253215507159 0 0 0
309 1 22.007615312658512 3.143391719892995 9.431760060922802 -1 0 0
310 1 1.5689659618663412 4.714673776827923 11.003439495311133 0 0 0
311 1 3.141046130126487 3.142246088745198 9.43062373376838 0 0 0
312 1 4.71112213438553 4.7120750998432035 11.001975304374692 0 0 0
313 1 6.285016315118745 3.14005769139775 9.42946603086809 0 0 0
314 1 7.85606684017739 4.708307806215553 11.001338444829402 0 0 0
315 1 9.431375468716029 3.14033727472277 9.429798310814412 0 0 0
316 1 11.00342925759625 4.71210885445638 11.001931387070263 0 0 0
317 1 12.576971032203891 3.1412441366997776 9.431062482636928 0 0 0
318 1 14.148689669331409 4.71540401954412 11.0047123232385 0 0 0
319 1 15.721014916036127 3.1434035799961446 9.432444145636282 0 0 0
320 1 17.292552613568393 4.716024026573234 11.00482703539184 0 0 0
321 1 18.86448488975341 3.1437801597317563 9.432458418364321 0 0 0
322 1 20.43595420470206 4.715625207351263 11.004276679918249 0 0 0
323 1 22.00713161065649 6.2874867628774815 9.43161854060526 -1 0 0
324 1 1.567962436283545 7.8594147027519075 11.003347320463526 0 0 0
325 1 3.1385400218832924 6.285417173620504 9.429263824416566 0 0 0
326 1 4.705578166363733 7.856099226499982 11.00040565141961 0 0 0
327 1 6.276166237226293 6.276599565694926 9.420966122008574 0 0 0
328 1 7.828597076277041 7.831549709441381 10.97669200152084 0 0 0
329 1 9.429211841205921 6.2771405760824495 9.423965488320578 0 0 0
330 1 11.011773106005897 7.849742467597866 10.978548954786298 0 0 0
331 1 12.581509111050503 6.277454858659811 9.424913667625646 0 0 0
332 1 14.146955009368355 7.862510652356828 11.00641080305938 0 0 0
333 1 15.7218510586453 6.287208198811372 9.432495636094924 0 0 0
334 1 17.29141626275254 7.861284863160068 11.006311462558715 0 0 0
335 1 18.864510018812794 6.288107702340245 9.43281218955487 0 0 0
336 1 20.435681932271986 7.860116516356919 11.004552595598485 0 0 0
337 1 22.007430849632286 9.43225163917273 9.431417027367804 -1 0 0
338 1 1.5676487164436665 11.004770399762728 11.003216120460522 0 0 0
339 1 3.1383916782833277 9.431378450860372 9.428966608529937 0 0 0
340 1 4.703286612958861 11.0047702450087 11.000862897602746 0 0 0
341 1 6.277341162955559 9.427673123167585 9.423328597620513 0 0 0
342 1 7.817819679142387 11.00476854112206 10.983396002977509 0 0 0
343 1 9.412379444138695 9.402679336366253 9.403067856447132 0 0 0
344 1 11.072348464788986 11.00477530119253 10.764206170257683 0 0 0
345 1 12.61153548445828 9.399342086903149 9.395563954977057 0 0 0
346 1 14.163812608031057 11.004771045677048 10.990698957536825 0 0 0
347 1 15.730383219042341 9.429164454896556 9.426843157027582 0 0 0
348 1 17.294325158260126 11.004770548845196 11.005755601205136 0 0 0
349 1 18.866480072066825 9.432213074523672 9.432021245342481 0 0 0
350 1 20.436049606051565 11.004770436363398 11.004740466699348 0 0 0
351 1 22.007431060661414 12.577289162797632 9.43141707121349 -1 0 0
352 1 1.5679631370235076 14.150125894744404 11.003347453763094 0 0 0
353 1 3.138392136056199 12.578162267000689 9.428966791767056 0 0 0
354 1 4.705580203121421 14.153440643581922 11.000406325893437 0 0 0
355 1 6.277342200773406 12.581867304021356 9.423329352402313 0 0 0
356 1 7.828603062747309 14.177986611522465 10.976696926467952 0 0 0
357 1 9.412379158713888 12.606862287678991 9.40306698237262 0 0 0
358 1 11.011773116776043 14.159800728296782 10.978550410883233 0 0 0
359 1 12.611536475810924 12.61020110176459 9.395563606586284 0 0 0
360 1 14.146956096414812 14.147031816364098 11.006410503008489 0 0 0
361 1 15.730383553656631 12.580376878379926 9.426843128834518 0 0 0
362 1 17.291416816732287 14.148256377974631 11.00631137284941 0 0 0
363 1 18.866480253819166 12.577327833358698 9.432021235886614 0 0 0
364 1 20.43568232143025 14.149424334999331 11.00455260681667 0 0 0
365 1 22.00713203734246 15.722053925016422 9.43161863812415 -1 0 0
366 1 1.5689664335306164 17.29486674255311 11.003439595941106 0 0 0
367 1 3.1385409018101478 15.724123100682837 9.429264288350454 0 0 0
368 1 4.711122871496265 17.297465040856604 11.001975556032528 0 0 0
369 1 6.276168194531193 15.73293946631202 9.420967837229885 0 0 0
370 1 7.856067199698186 17.301232649973844 11.00133851242658 0 0 0
371 1 9.42921201058229 15.732400358616951 9.423966084418835 0 0 0
372 1 11.00343000361834 17.297433399270783 11.001931135080921 0 0 0
373 1 12.581509410243049 15.732086838017967 9.424913716517455 0 0 0
374 1 14.14869023787425 17.294137693768867 11.00471221592421 0 0 0
375 1 15.721851543760614 15.722333170796427 9.432495443558516 0 0 0
376 1 17.29255300683431 17.293517123442648 11.004826986284643 0 0 0
377 1 18.8645103711329 15.721433238289409 9.432812142966402 0 0 0
378 1 20.43595453449852 17.293915596303826 11.004276691952287 0 0 0
379 1 22.00761553443737 18.86614894135643 9.431760110962756 -1 0 0
380 1 1.569946032250819 20.43809206954768 11.003744895315466 0 0 0
381 1 3.1410464106821188 18.867294358590385 9.430623895254039 0 0 0
382 1 4.713656520144509 20.438861075932518 11.00319611073826 0 0 0
383 1 6.28501656692599 18.86948267227244 9.429466230890776 0 0 0
384 1 7.85894281746357 20.439290525933043 11.003309154445825 0 0 0
385 1 9.431375541991134 18.86920373251526 9.429798405147668 0 0 0
386 1 11.004110965430067 20.438576411217028 11.003788164784883 0 0 0
387 1 12.576971326273515 18.868297310624083 9.431062331482577 0 0 0
388 1 14.148765693367455 20.43786484224616 11.004461692577394 0 0 0
389 1 15.721015174841755 18.866137622106656 9.432444059554609 0 0 0
390 1 17.29267421453203 20.437641029347905 11.004535737964947 0 0 0
391 1 18.86448510088832 18.865760746254693 9.432458395456086 0 0 0
392 1 20.436172713364968 20.437749109741226 11.004253221013041 0 0 0
393 1 22.008066758684876 22.009543848983387 12.576205072859313 -1 -1 0
394 1 1.570457326972191 1.5714876796258346 14.148360734587792 0 0 0
395 1 3.1420695962537284 22.009543765217398 12.575951097201738 0 -1 0
396 1 4.714173928103025 1.5708404638122344 14.148408247665417 0 0 0
397 1 6.286470091430638 22.00954383978355 12.575844117052037 0 -1 0
398 1 7.859321525315441 1.5705224762961107 14.148320011690819 0 0 0
399 1 9.431866735747352 22.0095442115566 12.576029599563528 0 -1 0
400 1 11.004337047822494 1.5712114777498398 14.148513466521598 0 0 0
401 1 12.57662008507774 22.009544268060814 12.576410616837274 0 -1 0
402 1 14.149151960523746 1.5714935188553583 14.148664683065972 0 0 0
403 1 15.720908067658812 22.009544128483753 12.576552643283012 0 -1 0
404 1 17.293172400632503 1.5717704860134736 14.148572374695572 0 0 0
405 1 18.864633090953088 22.00954397239033 12.576443549745203 0 -1 0
406 1 20.436672230229668 1.5717590067656846 14.148450746194229 0 0 0
407 1 22.007855876632046 3.14339248411372 12.576199360757688 -1 0 0
408 1 1.5697960872553838 4.714779466463377 14.148485942898994 0 0 0
409 1 3.1413641210338987 3.142412081672629 12.575854948325958 0 0 0
410 1 4.7121620464514375 4.712587156914239 14.148869540746704 0 0 0
411 1 6.2850620991041595 3.1404273635294246 12.575574382157733 0 0 0
412 1 7.856786862668381 4.709393506990364 14.148887229699762 0 0 0
413 1 9.431504000249367 3.1419697135799334 12.575869127228474 0 0 0
414 1 11.003864846048463 4.713556048511265 14.149915002827113 0 0 0
415 1 12.576335445549068 3.1430600575809886 12.576521897038539 0 0 0
416 1 14.149880447322676 4.714450740890608 14.149150014967278 0 0 0
417 1 15.720932178069127 3.1437168736185592 12.576623929227674 0 0 0
418 1 17.293548722620205 4.7155815406193495 14.148649402381505 0 0 0
419 1 18.864634177094 3.14373489844152 12.576483265591326 0 0 0
420 1 20.436762391778302 4.715509119846377 14.148554745755085 0 0 0
421 1 22.007367650773073 6.287380444851813 12.576212074186081 -1 0 0
422 1 1.5692398853218414 7.859350098580858 14.148616983299444 0 0 0
423 1 3.1390412610160605 6.285493670249909 12.575545322132557 0 0 0
424 1 4.707103071145492 7.855946083921808 14.149701326598828 0 0 0
425 1 6.2787276100920035 6.279271836530553 12.574224365648801 0 0 0
426 1 7.830822822223703 7.834638069490504 14.164653473247906 0 0 0
427 1 9.4291479126846 6.283413700817902 12.574704538782584 0 0 0
428 1 11.01403026872615 7.857302383117667 14.170590405272351 0 0 0
429 1 12.573179298186274 6.284885211867148 12.577404572750192 0 0 0
430 1 14.152708264030128 7.859238736694078 14.15094969541953 0 0 0
431 1 15.719955832076637 6.288360259725165 12.576959544397383 0 0 0
432 1 17.29424937117217 7.8603661571265295 14.148547206194673 0 0 0
433 1 18.864535326295936 6.287790860676947 12.576650938209339 0 0 0
434 1 20.437219161135754 7.859908879455139 14.148693871509554 0 0 0
435 1 22.007451750962527 9.43222807005583 12.576380406005551 -1 0 0
436 1 1.5711597532825963 11.004770413775198 14.148333803496767 0 0 0
437 1 3.1386748595920726 9.431602288097562 12.57604497653541 0 0 0
438 1 4.7164123832330835 11.00477031757566 14.147089652264997 0 0 0
439 1 6.274323195064953 9.42480198981419 12.575540347854957 0 0 0