LAMMPS data file via write_data, version 2 Aug 2023, timestep = 34, units = metal

690 atoms
3 atom types

0 22.009546999999998 xlo xhi
0 22.009546999999998 ylo yhi
0 22.009546999999998 zlo zhi

Masses

1 183.84
2 1.008
3 4.0026

Atoms # atomic

1 1 0.001929489510829386 22.009504086758728 0.0005564559020541511 0 -1 0
2 1 1.5733040635824471 1.5710736781527446 1.571895055678187 0 0 0
3 1 3.145203961641504 22.009388826845104 0.0009024292735357502 0 -1 0
4 1 4.71729237640953 1.5708381715246527 1.5719976720127506 0 0 0
5 1 6.289701097942086 22.009386052819202 0.0011525348383984956 0 -1 0
6 1 7.862138457138843 1.5708010347661947 1.572143451766456 0 0 0
7 1 9.434787616326448 22.00948479268957 0.0013084836006204545 0 -1 0
8 1 11.00732161293604 1.5709059234977532 1.5722552236987335 0 0 0
9 1 12.579974206181227 7.246416686172245e-05 0.0012962643592460581 0 0 0
10 1 14.152407400732562 1.571053849716489 1.5722352963016908 0 0 0
11 1 15.724843960094255 0.00017127300698766156 0.0010730046829077612 0 0 0
12 1 17.296984226841616 1.5712087658852127 1.5720766736176206 0 0 0
13 1 18.86886795806813 0.00013479001299231534 0.0007456848083357755 0 0 0
14 1 20.440265552100907 1.5713854884741494 1.5719285280203696 0 0 0
15 1 0.00195577069121812 3.1431661866497977 0.00028048899811097816 0 0 0
16 1 1.5731914762210986 4.714911101937133 1.571179150608861 0 0 0
17 1 3.14459281158126 3.142462324103315 0.0007214650700351925 0 0 0
18 1 4.716496011559725 4.713960370293465 1.5710133415288543 0 0 0
19 1 6.289315866908415 3.14225815017138 0.0009046327946254626 0 0 0
20 1 7.861801396750793 4.713764845424309 1.571277801752526 0 0 0
21 1 9.434688801744274 3.142221365861952 0.0010685147734147715 0 0 0
22 1 11.007524221370227 4.713760827717212 1.5715345832906114 0 0 0
23 1 12.580210161653214 3.1423033624391468 0.0011771472188347861 0 0 0
24 1 14.153168217748798 4.713912924680069 1.5716442217792301 0 0 0
25 1 15.725409726844264 3.142389840477931 0.001103867691375633 0 0 0
26 1 17.29783965255092 4.71431188704218 1.5716856665999441 0 0 0
27 1 18.86926058800607 3.1428305671226306 0.0006332359293300436 0 0 0
28 1 20.440463812742358 4.71514414711961 1.5715488861701568 0 0 0
29 1 0.002312151375566304 6.2875541739290135 22.009455018421214 0 0 -1
30 1 1.5734681206506493 7.859702331764923 1.5708240597313077 0 0 0
31 1 3.1448703272532446 6.287147604088962 22.009461615955242 0 0 -1
32 1 4.716655220170579 7.859204156786463 1.5700356696046673 0 0 0
33 1 6.2887721018387 6.286165131515332 0.0009664152926909281 0 0 0
34 1 7.861774477222068 7.858788517085667 1.5698738221354063 0 0 0
35 1 9.434625504521271 6.28583923729031 0.0013323673251439884 0 0 0
36 1 11.007833215560309 7.858551424826897 1.5705493173463625 0 0 0
37 1 12.580878056912656 6.285909248496038 0.0017786549577490799 0 0 0
38 1 14.153878983906514 7.858810015372283 1.5712434329078102 0 0 0
39 1 15.72658908356783 6.286064810713481 0.001730434975205844 0 0 0
40 1 17.298275468265437 7.859288996710773 1.5715429097075007 0 0 0
41 1 18.869704786739 6.287143764487736 0.0005086590313252023 0 0 0
42 1 20.44076836408164 7.859786793935787 1.571374931636598 0 0 0
43 1 0.0026581661630343113 9.432366316659833 22.00940278436651 0 0 -1
44 1 1.5737025863685943 11.004750042313715 1.5709376310855618 0 0 0
45 1 3.145220587365877 9.432251631856408 22.009180600756657 0 0 -1
46 1 4.71685709589151 11.00475764677958 1.5702325141993057 0 0 0
47 1 6.289243564953558 9.43216607932968 22.009334889661073 0 0 -1
48 1 7.861796881427955 11.004847308277213 1.5695962499734595 0 0 0
49 1 9.435068542911452 9.432172507497311 0.0006621592497729034 0 0 0
50 1 11.008164789867301 11.004936068917068 1.5704525792772719 0 0 0
51 1 12.581292143627142 9.43203495248102 0.0022314738445716924 0 0 0
52 1 14.154402752668087 11.004948552923674 1.5714808236428748 0 0 0
53 1 15.727085945930412 9.431852030637433 0.0018139735609912575 0 0 0
54 1 17.298553400685467 11.004898362097494 1.5716716547493705 0 0 0
55 1 18.870060036398925 9.432239142492627 0.0005660147077740932 0 0 0
56 1 20.44100640289999 11.004830217748852 1.5714570632154883 0 0 0
57 1 0.0027976987791517847 12.577307893371042 3.390787333797321e-05 0 0 0
58 1 1.5737811400427544 14.149701689663715 1.5713481097089967 0 0 0
59 1 3.1453411778654923 12.577367617342368 22.009512101789742 0 0 -1
60 1 4.716999975999197 14.150072502299906 1.571094418274533 0 0 0
61 1 6.289326942993746 12.57764948611375 0.0004367680556083111 0 0 0
62 1 7.862092117418496 14.150383364177943 1.5716773727373865 0 0 0
63 1 9.435148546703756 12.5778223466635 0.0014330352489929812 0 0 0
64 1 11.007851241861724 14.1509066742632 1.5720560129191354 0 0 0
65 1 12.581429751832312 12.578110795043374 0.002805285407320522 0 0 0
66 1 14.15403637343775 14.151002534189436 1.5719453995397807 0 0 0
67 1 15.727232708807229 12.57815301110145 0.002100161037577482 0 0 0
68 1 17.29851796783529 14.150490847826722 1.5718950605389488 0 0 0
69 1 18.87020445567489 12.577601845061102 0.0007262025695746556 0 0 0
70 1 20.44105437338566 14.149832727071129 1.5716931701675165 0 0 0
71 1 0.0026534559245594367 15.722053931161385 0.00034807212226627826 0 0 0
72 1 1.5736825300784376 17.294256153771578 1.5718758816033533 0 0 0
73 1 3.145190253240237 15.722304357640754 0.0006915242602163807 0 0 0
74 1 4.717083887885492 17.294798478775725 1.572329315052644 0 0 0
75 1 6.289086950692019 15.723256830643068 0.002323713474358262 0 0 0
76 1 7.86211759098108 17.29503143138595 1.5728435376805718 0 0 0
77 1 9.434790385569489 15.723821302448076 0.0028272173864269633 0 0 0
78 1 11.007547930294669 17.29531789939018 1.572994382314182 0 0 0
79 1 12.581059624416332 15.724009847673974 0.0030221333092234942 0 0 0
80 1 14.153226290497138 17.29558113548049 1.5726287780459831 0 0 0
81 1 15.726910703722398 15.723926957803556 0.0023700345286411313 0 0 0
82 1 17.29813663837645 17.295420283566663 1.57211756971354 0 0 0
83 1 18.870050391596298 15.722685567526481 0.0008941063007771851 0 0 0
84 1 20.440854966312262 17.294398555322978 1.5719470188446276 0 0 0
85 1 0.002268507850843288 18.86631819826546 0.0006446409597934697 0 0 0
86 1 1.5735510917552422 20.437939987217828 1.572226733594521 0 0 0
87 1 3.1449139816563423 18.866796668121705 0.00140553641737009 0 0 0
88 1 4.717516303372386 20.437885409593616 1.572505713682976 0 0 0
89 1 6.289545056046329 18.867006601386073 0.0018346611906988996 0 0 0
90 1 7.862268260225216 20.43797349477167 1.572724888975399 0 0 0
91 1 9.434827341005192 18.867249406573666 0.0020396293638648864 0 0 0
92 1 11.007356292839953 20.438137010875767 1.5728020171093895 0 0 0
93 1 12.580344519737908 18.867437751484545 0.002061473471312144 0 0 0
94 1 14.152440628994748 20.43833611360712 1.5726523538505235 0 0 0
95 1 15.725657872736162 18.867543794306215 0.0017127161373746735 0 0 0
96 1 17.29710059478483 20.4384344915451 1.5723316706748682 0 0 0
97 1 18.86954923271479 18.866983209548593 0.0009469187559699489 0 0 0
98 1 20.440454411421314 20.438071845148023 1.5721124184569655 0 0 0
99 1 0.0018521235879989276 22.0092968965413 3.1436540200646363 0 -1 0
100 1 1.572670186046988 1.5705984304142684 4.71482117126394 0 0 0
101 1 3.1452230335873823 22.008986753371694 3.1435528410275366 0 -1 0
102 1 4.716700171104033 1.569931920360005 4.714472196285064 0 0 0
103 1 6.289741694821779 22.00885710665492 3.143676709409319 0 -1 0
104 1 7.861886702762691 1.5699409082272555 4.7145898338912815 0 0 0
105 1 9.434711886482738 22.008949341865655 3.1437864094386097 0 -1 0
106 1 11.007236613149018 1.5701570795939503 4.714731112411918 0 0 0
107 1 12.579788370064051 22.009159354001124 3.1438117787526485 0 -1 0
108 1 14.152512229068634 1.5704326111797364 4.7148034061026065 0 0 0
109 1 15.724682808717946 22.009423950129378 3.1436838600800425 0 -1 0
110 1 17.297311271906146 1.5706918048834788 4.714810909778151 0 0 0
111 1 18.86879169595231 22.00951320740777 3.1435884212574554 0 -1 0
112 1 20.439906528918865 1.5711700938979536 4.715368876622591 0 0 0
113 1 0.0016766739378136046 3.1427876333127975 3.1430060862564138 0 0 0
114 1 1.5718296515567929 4.71372183795693 4.71350535708661 0 0 0
115 1 3.144335140668963 3.14187967146407 3.1423788516115487 0 0 0
116 1 4.714414254880437 4.711601813368752 4.711258865638116 0 0 0
117 1 6.289182815988949 3.141649284999116 3.142475879026805 0 0 0
118 1 7.861081762723866 4.711931127957603 4.711917190412831 0 0 0
119 1 9.434583660790087 3.1416974478565907 3.142663764264789 0 0 0
120 1 11.007574215623505 4.712084338103965 4.712229793157968 0 0 0
121 1 12.580096640191805 3.141840511320557 3.142807235850746 0 0 0
122 1 14.154091870546416 4.71218916854328 4.712128759349713 0 0 0
123 1 15.72532015212963 3.142031388860104 3.1427839093420933 0 0 0
124 1 17.298850148181714 4.71292567565801 4.713145616027078 0 0 0
125 1 18.869104318965213 3.1425620776693894 3.1430396485932617 0 0 0
126 1 20.44017041734253 4.7144846287583855 4.714492238641135 0 0 0
127 1 0.0018036243491633586 6.287148330101411 3.1425406579789654 0 0 0
128 1 1.5720749231615636 7.858948973338458 4.713178551615611 0 0 0
129 1 3.1440238382374948 6.286302215947764 3.141243877432297 0 0 0
130 1 4.7141329337524915 7.857372839293929 4.709805239869176 0 0 0
131 1 6.288077794142183 6.285104832840542 3.1397529378673443 0 0 0
132 1 7.859643067113881 7.855864488938049 4.706145589780399 0 0 0
133 1 9.434519136693089 6.28509302849896 3.1403305170168965 0 0 0
134 1 11.008548064865593 7.855879168032655 4.707401618552813 0 0 0
135 1 12.580998810849877 6.2851952408074885 3.1406132096404504 0 0 0
136 1 14.156073499887068 7.856638507848884 4.7085016873981225 0 0 0
137 1 15.72663389381533 6.285624193980356 3.1412850323906856 0 0 0
138 1 17.29921358303011 7.858450495930395 4.712808327852148 0 0 0
139 1 18.86947709864425 6.2868684243175705 3.1426285306831074 0 0 0
140 1 20.440464984765455 7.859340928246333 4.7141752683128235 0 0 0
141 1 0.002102857419475702 9.432141559897287 3.142462704717501 0 0 0
142 1 1.5724500785787638 11.00457139186445 4.7133678375195665 0 0 0
143 1 3.144310892969795 9.431829093161848 3.1411725309335985 0 0 0
144 1 4.7145265234996625 11.004496010386022 4.710520680172688 0 0 0
145 1 6.2881989638301246 9.431358039289956 3.1389485817449976 0 0 0
146 1 7.859418632497087 11.004618881351666 4.706508911417209 0 0 0
147 1 9.434878098923505 9.431485828506478 3.137929316015373 0 0 0
148 1 11.009461859659577 11.004789335332877 4.708182129454246 0 0 0
149 1 12.581420205297277 9.431472474847139 3.1393840776011843 0 0 0
150 1 14.156716884492946 11.004844243354068 4.708810145613775 0 0 0
151 1 15.72706237878847 9.431616890944332 3.141222326417578 0 0 0
152 1 17.299499458451788 11.004801963851097 4.712809681063146 0 0 0
153 1 18.8697788451408 9.432069390968888 3.1425608365751865 0 0 0
154 1 20.440755178241883 11.004702880266308 4.714193267856771 0 0 0
155 1 0.0022943942427558705 12.577263746430097 3.1427013108418436 0 0 0
156 1 1.5726537181990152 14.150034060802211 4.713891952398968 0 0 0
157 1 3.1445398299298772 12.577385107243204 3.141676252299317 0 0 0
158 1 4.7149004586643235 14.151052795163501 4.711547992630827 0 0 0
159 1 6.288457585211882 12.577821067122478 3.1400824144089943 0 0 0
160 1 7.8606559211845415 14.151361717705301 4.710511599440364 0 0 0
161 1 9.435001304712713 12.577653113025637 3.139809912316682 0 0 0
162 1 11.00816777494213 14.152285276428724 4.710447876877316 0 0 0
163 1 12.581494661026744 12.578184266401875 3.1400424722580316 0 0 0
164 1 14.15628442074692 14.15298211752929 4.7091101959506085 0 0 0
165 1 15.727201465857673 12.578113871235889 3.1414744176552305 0 0 0
166 1 17.299624819017716 14.151186010320524 4.713057884272055 0 0 0
167 1 18.869950496900074 12.577537020438292 3.1427261899258743 0 0 0
168 1 20.440907898852704 14.150047845452535 4.714499045234942 0 0 0
169 1 0.002313284327533895 15.722127629861651 3.1430996056461504 0 0 0
170 1 1.5727691139288213 17.29483392979157 4.714471239201604 0 0 0
171 1 3.1447082020415227 15.722501893463582 3.142404708703467 0 0 0
172 1 4.715800782618702 17.295823426186782 4.713297411845197 0 0 0
173 1 6.288979464082853 15.723011119398363 3.1421337570476924 0 0 0
174 1 7.861778207903756 17.295262914784683 4.714436726129418 0 0 0
175 1 9.43461960335957 15.723176479305012 3.1428611271740254 0 0 0
176 1 11.007266667351827 17.29564095421221 4.714441995141578 0 0 0
177 1 12.580791240276172 15.723758212286612 3.142296966127971 0 0 0
178 1 14.15380083535369 17.296650570477034 4.71335873090608 0 0 0
179 1 15.72686114416579 15.724019168348791 3.1418079034318973 0 0 0
180 1 17.299280314906415 17.29670218426653 4.713412177327283 0 0 0
181 1 18.86987297768787 15.722718681939925 3.14297838783172 0 0 0
182 1 20.440775154185506 17.29482510840968 4.714903438400388 0 0 0
183 1 0.0021661097644697616 18.866284856005958 3.1434881313547267 0 0 0
184 1 1.5730196002133736 20.438002221256415 4.715168989325726 0 0 0
185 1 3.14499620910311 18.866533438580774 3.143311602318469 0 0 0
186 1 4.717140093083896 20.43782689387607 4.715137429285329 0 0 0
187 1 6.289695392030505 18.86642333246648 3.1437595967486565 0 0 0
188 1 7.862114480467423 20.437696150130904 4.7153639863693 0 0 0
189 1 9.434716218885029 18.866572170264742 3.1439564689720667 0 0 0
190 1 11.00721428230123 20.437928464494114 4.7154090025411985 0 0 0
191 1 12.579991759712037 18.866896315231436 3.1438535413421786 0 0 0
192 1 14.152466635481645 20.438438853339083 4.7152293803485845 0 0 0
193 1 15.725363527279479 18.867299047899177 3.1433512970497866 0 0 0
194 1 17.297469220538595 20.438773776362837 4.714964021499409 0 0 0
195 1 18.869435814485776 18.86695853065739 3.1433182256122882 0 0 0
196 1 20.440153666088328 20.43810731202932 4.7155348873267755 0 0 0
197 1 0.0014315350813048392 22.009261362240505 6.287577708912521 0 -1 0
198 1 1.572235614196018 1.5705915697581894 7.859255762974814 0 0 0
199 1 3.1444290999419153 22.008886267666853 6.286868569456684 0 -1 0
200 1 4.715726615020347 1.5690832066032276 7.858364085879874 0 0 0
201 1 6.289277692538299 22.008441525859684 6.286864923153208 0 -1 0
202 1 7.861348124544718 1.5687648105534648 7.858366581713712 0 0 0
203 1 9.434537291270566 22.008548418330527 6.286972642327002 0 -1 0
204 1 11.007151456044667 1.5693134307499244 7.858597846755256 0 0 0
205 1 12.579825141163836 22.009001085362492 6.287042820857796 0 -1 0
206 1 14.153155031172767 1.569435222611598 7.858624133716584 0 0 0
207 1 15.725177852620657 22.009452993663636 6.286941346793421 0 -1 0
208 1 17.296813116353373 1.57104638149276 7.859647586420056 0 0 0
209 1 18.868451057932525 22.009534445213333 6.28763822606955 0 -1 0
210 1 20.439411013109048 1.5712823006196757 7.859789249686815 0 0 0
211 1 0.0008858302736769384 3.142412909645945 6.286855649858205 0 0 0
212 1 1.570461417830663 4.713111786047896 7.857961029055344 0 0 0
213 1 3.1427023526906503 3.140341577255443 6.2850808159679 0 0 0
214 1 4.710554166154998 4.707545436153815 7.853290389875888 0 0 0
215 1 6.287867507214768 3.139362192972289 6.284712947191433 0 0 0
216 1 7.858952776281395 4.707159494624426 7.8540139777771225 0 0 0
217 1 9.434236028886067 3.1399238475637077 6.284981785461038 0 0 0
218 1 11.007286190095845 4.708711611600278 7.854845071539946 0 0 0
219 1 12.580360597961375 3.1402628320420822 6.285296322372127 0 0 0
220 1 14.157990975208518 4.706617905900117 7.853251312677351 0 0 0
221 1 15.726692410445876 3.140092028048192 6.285135971316338 0 0 0
222 1 17.298611683691114 4.713174047249523 7.858337194580707 0 0 0
223 1 18.868817736044196 3.142399219231914 6.286979136619073 0 0 0
224 1 20.439418195144633 4.714544603805489 7.859208851223185 0 0 0
225 1 0.0005729632412091271 6.286346646950964 6.285946431854105 0 0 0
226 1 1.5692086992274816 7.857884721022026 7.856951399586638 0 0 0
227 1 3.140258393324373 6.283446205636769 6.282565745027333 0 0 0
228 1 4.704883265872321 7.850723426149113 7.848260135459527 0 0 0
229 1 6.282226401146672 6.278840500306592 6.276697764287848 0 0 0
230 1 7.845513337125686 7.839755378444384 7.833805995499434 0 0 0
231 1 9.433877346247744 6.281298968666232 6.279289773260836 0 0 0
232 1 11.01151471331118 7.847694391607797 7.841821556071582 0 0 0
233 1 12.583233655712833 6.281095535686818 6.27893659647344 0 0 0
234 1 14.171035163388453 7.8428866752872874 7.839849967910955 0 0 0
235 1 15.73124374962896 6.2809502273762625 6.280427927089847 0 0 0
236 1 17.30221447084953 7.857122742718213 7.856218985851957 0 0 0
237 1 18.87023014053421 6.285941092429599 6.285717402843989 0 0 0
238 1 20.440026047936588 7.859122990734152 7.858635130903209 0 0 0
239 1 0.001020877299421515 9.431741202750027 6.285750211035572 0 0 0
240 1 1.5699376037195738 11.004360042881986 7.857005279333177 0 0 0
241 1 3.1412836675816322 9.43080323625013 6.282892043215044 0 0 0
242 1 4.707956808495993 11.00397375842439 7.8509320689387465 0 0 0
243 1 6.283665040845661 9.428949330939565 6.275424493196341 0 0 0
244 1 7.850051327422023 11.006364676074746 7.839054197261184 0 0 0
245 1 9.433831554230684 9.42927640703007 6.2671349521972575 0 0 0
246 1 11.017125654908751 11.00477198012592 7.848835201794369 0 0 0
247 1 12.585274357079447 9.42862579362285 6.272277434054063 0 0 0
248 1 14.167369818114157 11.005226480674189 7.84354730935451 0 0 0
249 1 15.730730805059032 9.430175806204225 6.280905535979499 0 0 0
250 1 17.302538147738925 11.00477633825188 7.855599508137028 0 0 0
251 1 18.87059006723546 9.431652558274752 6.285407779264623 0 0 0
252 1 20.4405439774046 11.004636580667926 7.858397956972868 0 0 0
253 1 0.0013690350421511255 12.577385339346998 6.286018934117453 0 0 0
254 1 1.570324694119664 14.150623354230788 7.857775474785323 0 0 0
255 1 3.1417342241648654 12.577837455848309 6.2836670919569375 0 0 0
256 1 4.707580243932589 14.155389611456837 7.851601273304373 0 0 0
257 1 6.283860917565601 12.579468631064652 6.27776499622226 0 0 0
258 1 7.850533292414956 14.159151059002202 7.845976358966823 0 0 0
259 1 9.434407404354596 12.57791624901354 6.273489335787939 0 0 0
260 1 11.008937963115416 14.156531888169653 7.84872004755161 0 0 0
261 1 12.585735178131102 12.58104760178622 6.273093038446722 0 0 0
262 1 14.172881993688826 14.168548379212465 7.839603204449 0 0 0
263 1 15.73115908304558 12.57960180633326 6.281068544827187 0 0 0
264 1 17.303183032491834 14.152684937783734 7.856387020300378 0 0 0
265 1 18.8709150031026 12.577827684112645 6.285541791788024 0 0 0
266 1 20.440797028495098 14.150194863699777 7.858888565459252 0 0 0
267 1 0.0014751933135757362 15.722622946848164 6.286553815954536 0 0 0
268 1 1.5714406729174974 17.295404403715178 7.858658087579588 0 0 0
269 1 3.1419195079576245 15.724243989188228 6.284322416961134 0 0 0
270 1 4.711777615818435 17.299762159050072 7.854784202214004 0 0 0
271 1 6.285090277347499 15.72641728553773 6.281194179989694 0 0 0
272 1 7.860624019571103 17.297825928318442 7.857497169713118 0 0 0
273 1 9.433707413531085 15.724370326586559 6.284278204221231 0 0 0
274 1 11.007204729740465 17.29792258850636 7.857325215977709 0 0 0
275 1 12.582224886093766 15.726683709757602 6.281769846276068 0 0 0
276 1 14.158359815760416 17.302897811212265 7.854097757720191 0 0 0
277 1 15.73199300097947 15.729032184154544 6.280509600608819 0 0 0
278 1 17.299459085116197 17.296751506215195 7.8584372910756 0 0 0
279 1 18.870940804196472 15.723611137563482 6.285964254956223 0 0 0
280 1 20.440225074438885 17.294814590726244 7.859498170670006 0 0 0
281 1 0.0014865617140226502 18.866539248819645 6.287257032519625 0 0 0
282 1 1.5726003673766253 20.43809211073892 7.859507147240164 0 0 0
283 1 3.143506740113447 18.867695565811637 6.285927675803175 0 0 0
284 1 4.716100845579258 20.438812032036616 7.858787803591814 0 0 0
285 1 6.288906343523455 18.86737527612013 6.286393354020221 0 0 0
286 1 7.861777251931375 20.438233993589865 7.859184132882228 0 0 0
287 1 9.434444670348444 18.867094723741033 6.286720424128271 0 0 0
288 1 11.007233564666825 20.43855230947749 7.859190842023456 0 0 0
289 1 12.580175343893647 18.867948226558774 6.2864551822518395 0 0 0
290 1 14.153247745766144 20.439785106350104 7.858920896962274 0 0 0
291 1 15.726930822399677 18.869364245416353 6.28548174907337 0 0 0
292 1 17.297128688096826 20.438768564833385 7.859705948250835 0 0 0
293 1 18.86930416102954 18.867140721971175 6.28716320490935 0 0 0
294 1 20.43972926619604 20.438102357844063 7.859898670442466 0 0 0
295 1 0.0011015828213002071 22.009383960878154 9.432097058401991 0 -1 0
296 1 1.5720203062536786 1.57080735013078 11.004253176406502 0 0 0
297 1 3.1440320821748644 22.0090731537263 9.431668964063531 0 -1 0
298 1 4.715346869415706 1.5695338945432533 11.003924388985348 0 0 0
299 1 6.2888118365567705 22.008867627832142 9.431634861477313 0 -1 0
300 1 7.861327399062578 1.5692169969869194 11.004346893908846 0 0 0
301 1 9.434418211333398 22.008696169285376 9.431681526105118 0 -1 0
302 1 11.006997695298944 1.5689734107648587 11.004633113417226 0 0 0
303 1 12.580022051284413 22.009289375488663 9.431893051315715 0 -1 0
304 1 14.15267551098104 1.570690171782505 11.004661955068734 0 0 0
305 1 15.72484285340498 0.00024567945364425763 9.432174180987449 0 0 0
306 1 17.296582123147203 1.571402704308087 11.00456720096478 0 0 0
307 1 18.868129722367247 0.0001332121059164241 9.43224322871135 0 0 0
308 1 20.439198828673348 1.5714531865308232 11.004485517718908 0 0 0
309 1 0.0005098153111255235 3.1425305942017006 9.431727864767751 0 0 0
310 1 1.5704434299090995 4.7133438847978555 11.003779270908732 0 0 0
311 1 3.1425340221914126 3.1406613460795674 9.430776656430146 0 0 0
312 1 4.711398884240885 4.70921735473542 11.002430464286663 0 0 0
313 1 6.286688783108518 3.1375131513133603 9.429791525480985 0 0 0
314 1 7.858181403530228 4.705432947832467 11.002360660860417 0 0 0
315 1 9.433514311241762 3.1380325486585483 9.429685795877917 0 0 0
316 1 11.007532326269162 4.7020849372534235 11.003158523617484 0 0 0
317 1 12.581269730254151 3.1375556668097015 9.429992901553744 0 0 0
318 1 14.154147697063134 4.71159302316379 11.004497485711827 0 0 0
319 1 15.725443069396349 3.1416138975446883 9.431723685499913 0 0 0
320 1 17.29748525412481 4.714024326790039 11.004298138811373 0 0 0
321 1 18.86816277412803 3.1428311501743287 9.43198539333101 0 0 0
322 1 20.43904909961477 4.714692380458905 11.004259089714013 0 0 0
323 1 22.009261984907347 6.286454289919181 9.431335989611645 -1 0 0
324 1 1.5689755944469415 7.858331511371589 11.003797215329593 0 0 0
325 1 3.1382947061969264 6.28306365353047 9.428760403033014 0 0 0
326 1 4.702979572203316 7.853064183253214 11.000752674941573 0 0 0
327 1 6.272589934898735 6.268771808750024 9.416906830333494 0 0 0
328 1 7.8149481700398145 7.822124398246332 10.966799199427747 0 0 0
329 1 9.430277506626085 6.274735302426873 9.422724828844222 0 0 0
330 1 11.050498606173852 7.79860234874218 10.97448567730258 0 0 0
331 1 12.59333432528318 6.2669428368371385 9.415943876369466 0 0 0
332 1 14.161409358992922 7.8537725939845116 11.002642963881383 0 0 0
333 1 15.729662971835841 6.283420783139964 9.429617222135278 0 0 0
334 1 17.299023110702485 7.858810702436624 11.004688011690492 0 0 0
335 1 18.869106484951608 6.286655091352658 9.43166408690628 0 0 0
336 1 20.439165287805665 7.859466358743295 11.004380843572811 0 0 0
337 1 22.009273832642304 9.431799393796572 9.43110895279281 -1 0 0
338 1 1.569594689408564 11.00437535649425 11.003868794950248 0 0 0
339 1 3.136281648517765 9.429787506344065 9.427498931741354 0 0 0
340 1 4.703038709593036 11.003029651635433 11.001605959173549 0 0 0
341 1 6.262212098370568 9.412573584268792 9.40376096818442 0 0 0
342 1 7.73785503233984 10.972614977743216 10.950861693018265 0 0 0
343 1 9.3895237481653 9.398905532293856 9.351078517293251 0 0 0
344 1 11.148083181856242 11.03131141219672 10.720704201354392 0 0 0
345 1 12.63261874219391 9.387546496192508 9.379243621912304 0 0 0
346 1 14.155296231951526 11.003555868643963 10.993770786363077 0 0 0
347 1 15.73704273432921 9.42951348876807 9.426491709640509 0 0 0
348 1 17.29846091691343 11.004958152160453 11.004183627120684 0 0 0
349 1 18.870528886832425 9.432036444189723 9.431268794947377 0 0 0
350 1 20.439503012539177 11.004727436815667 11.004422317988643 0 0 0
351 1 0.0002851439217459004 12.577249420776102 9.431302779876322 0 0 0
352 1 1.5700482578966808 14.150290379372166 11.004345431747867 0 0 0
353 1 3.137241344522163 12.578069698104168 9.428337596044742 0 0 0
354 1 4.704724949924114 14.154165305161689 11.002670419053056 0 0 0
355 1 6.264734402433577 12.589615060847407 9.411264639519986 0 0 0
356 1 7.815710884598749 14.1898152561627 10.972088358460121 0 0 0
357 1 9.40885253352301 12.613727535498304 9.384251247441211 0 0 0
358 1 11.04357842629915 14.18377084496547 10.971702031255097 0 0 0
359 1 12.637656416036426 12.62916243380624 9.378447180353993 0 0 0
360 1 14.16679276107969 14.159274136366589 11.003594725085781 0 0 0
361 1 15.738386619193715 12.580415357795637 9.426696943686439 0 0 0
362 1 17.300676567173667 14.15134549060344 11.005045808974575 0 0 0
363 1 18.87117758301723 12.57753734988748 9.431330657801869 0 0 0
364 1 20.440076968028986 14.149972246978386 11.004622652248113 0 0 0
365 1 0.000704636641349973 15.72257202742182 9.431773065263847 0 0 0
366 1 1.571224232092082 17.295603131624073 11.004178474709779 0 0 0
367 1 3.1395767702419923 15.724820700637816 9.42989657638117 0 0 0
368 1 4.7121799363584 17.299190913116565 11.003292637257976 0 0 0
369 1 6.273773749045715 15.737845243558288 9.419288906061979 0 0 0
370 1 7.8586023945296395 17.304176454325468 11.00386586054253 0 0 0
371 1 9.432740028298504 15.72885707357517 9.429919560790895 0 0 0
372 1 11.00921926470169 17.30289674987714 11.00400000370007 0 0 0
373 1 12.594074290555746 15.74297359962115 9.419281614054958 0 0 0
374 1 14.15635342526171 17.29972489994367 11.00472754311719 0 0 0
375 1 15.731492485429053 15.727310922185753 9.429625917501847 0 0 0
376 1 17.298801418971394 17.2963525992463 11.004503638823005 0 0 0
377 1 18.870242112261977 15.723115087945345 9.431845933210326 0 0 0
378 1 20.43993502074052 17.294946685443257 11.004495815555973 0 0 0
379 1 0.0011281287916695033 18.86663400967824 9.431991153105399 0 0 0
380 1 1.5723364438829026 20.438311882802964 11.004417140035192 0 0 0
381 1 3.143174936351046 18.86775371361399 9.431305681010844 0 0 0
382 1 4.715623529838316 20.439225806797946 11.00420166010363 0 0 0
383 1 6.287263028857456 18.870374347662732 9.430619791391027 0 0 0
384 1 7.861580462526466 20.439770417276854 11.004739450548204 0 0 0
385 1 9.43447617302862 18.86890359240843 9.431319705625546 0 0 0
386 1 11.007342831526481 20.439624408589943 11.004937362462533 0 0 0
387 1 12.581514511889285 18.871387382097073 9.430920255152026 0 0 0
388 1 14.153129033068451 20.439637980390962 11.004802089107336 0 0 0
389 1 15.726289507513275 18.86868607265977 9.431783254847433 0 0 0
390 1 17.29700289478286 20.438839937273194 11.004665438223899 0 0 0
391 1 18.868857757936258 18.867011301631216 9.432115825156702 0 0 0
392 1 20.439544302931406 20.43825074963052 11.004588148848084 0 0 0
393 1 0.0010325071623535612 2.1690732190976927e-05 12.576927025136904 0 0 0
394 1 1.5720784955587603 1.5710272190015964 14.149459381143542 0 0 0
395 1 3.1438408426779483 22.00940950976535 12.576962075828623 0 -1 0
396 1 4.71532701697095 1.5698624602132256 14.149967357932558 0 0 0
397 1 6.288316150693781 22.00950824193302 12.577136041949908 0 -1 0
398 1 7.8610577564387345 1.5691661611688659 14.150349880590882 0 0 0
399 1 9.434379728140534 0.00016075660128010187 12.577573083046742 0 0 0
400 1 11.007182007854999 1.5705323500392583 14.150169970380018 0 0 0
401 1 12.580225687890598 0.00034144146420329863 12.577514818378186 0 0 0
402 1 14.15306006472873 1.5707171553173807 14.150118124644662 0 0 0
403 1 15.724947490204055 0.0005259098495018555 12.577215759943474 0 0 0
404 1 17.296782937630276 1.5715322696967269 14.149514248636203 0 0 0
405 1 18.86812015797066 0.00029964089096582873 12.577008506548284 0 0 0
406 1 20.439324760764045 1.5715934190642105 14.14930846146493 0 0 0
407 1 0.0005063992679647943 3.142705894810577 12.576796014531789 0 0 0
408 1 1.570680430636806 4.713594096427553 14.149681549080968 0 0 0
409 1 3.14251570134825 3.140985110436385 12.57679614742594 0 0 0
410 1 4.711547011783625 4.709322164323751 14.151289108724251 0 0 0
411 1 6.286149035792311 3.1380307046509666 12.57681866883985 0 0 0
412 1 7.857160109683296 4.703033532099474 14.153153288235034 0 0 0
413 1 9.433403740456978 3.139963670290698 12.577976500307786 0 0 0
414 1 11.0077346925351 4.709471221988891 14.15237997868243 0 0 0
415 1 12.580983322167 3.140136615870639 12.578144570903248 0 0 0
416 1 14.15581637158262 4.7105771590802945 14.151726941034243 0 0 0
417 1 15.725435434627688 3.142083112644434 12.577131080964591 0 0 0
418 1 17.29797962003055 4.714123204143844 14.149752873560818 0 0 0
419 1 18.868116414824485 3.143020733345708 12.57689965869131 0 0 0
420 1 20.439341132858996 4.714857977321676 14.149334335467499 0 0 0
421 1 22.00938387372393 6.286499574815885 12.576750838148186 -1 0 0
422 1 1.5696096834257098 7.858603365067486 14.14976320765385 0 0 0
423 1 3.1390128926947742 6.283209277183342 12.576732437189493 0 0 0
424 1 4.702757081476511 7.851995332003023 14.154328413998627 0 0 0
425 1 6.276756901564436 6.272801204149775 12.576767877743668 0 0 0
426 1 7.811541233919498 7.811461390849352 14.195345713908704 0 0 0
427 1 9.429417193180699 6.28259585723109 12.580635752619534 0 0 0
428 1 11.038821830352653 7.838974419897201 14.192893788187765 0 0 0
429 1 12.585046642762881 6.279471743986062 12.583085270585007 0 0 0
430 1 14.167567991914998 7.8504341596111775 14.156580188308489 0 0 0
431 1 15.728169312500084 6.284515976697691 12.577156333084478 0 0 0
432 1 17.300509269912126 7.858791822904807 14.149897972857124 0 0 0
433 1 18.868930687080006 6.28669058543131 12.576864445979956 0 0 0
434 1 20.439838014784478 7.859673220854415 14.149252223652356 0 0 0
435 1 0.0002857891919542503 9.432052323287827 12.576834377832204 0 0 0
436 1 1.573007395624029 11.004736678116792 14.14906215260093 0 0 0
437 1 3.1400031877227623 9.430234215341054 12.577408097683582 0 0 0
438 1 4.718269816408703 11.00522380057417 14.14752030506874 0 0 0
439 1 6.27724035415305 9.412499906393492 12.584428196382119 0 0 0