LAMMPS data file via write_data, version 2 Aug 2023, timestep = 30, units = metal

689 atoms
3 atom types

0 22.009546999999998 xlo xhi
0 22.009546999999998 ylo yhi
0 22.009546999999998 zlo zhi

Masses

1 183.84
2 1.008
3 4.0026

Atoms # atomic

1 1 0.00010674288525765894 22.008847653452985 0.0005496814272541095 0 -1 0
2 1 1.5719944214391826 1.5715997551720988 1.5725205546366832 0 0 0
3 1 3.1439567647842064 22.00917063696992 0.0006471048374989437 0 -1 0
4 1 4.716185455427135 1.5720810735126822 1.5728981274045313 0 0 0
5 1 6.288250764196815 22.00944650757836 0.0008935117060910015 0 -1 0
6 1 7.860600514885628 1.572436189443972 1.5734160726327922 0 0 0
7 1 9.432729956673557 22.009478866897968 0.0011133585153617616 0 -1 0
8 1 11.005019876510653 1.572402734535095 1.573708099439793 0 0 0
9 1 12.577257471120427 22.009276980922944 0.0012129984591552727 0 -1 0
10 1 14.149460276075741 1.572071110123833 1.5736427667223412 0 0 0
11 1 15.72172197004956 22.00899118763256 0.0010988096484358994 0 -1 0
12 1 17.293917554325265 1.5716202102077244 1.573182728480527 0 0 0
13 1 18.86593131358239 22.00880220115172 0.0007893294744441672 0 -1 0
14 1 20.438028780147388 1.5714209587826826 1.5726601486479794 0 0 0
15 1 0.000450213652124223 3.143237228621161 0.0011384638122009323 0 0 0
16 1 1.572280592925452 4.715789021294121 1.5727327246068206 0 0 0
17 1 3.1438741825421723 3.143234564709549 0.0014391294860982336 0 0 0
18 1 4.715986852706905 4.715755077501966 1.5731718528494731 0 0 0
19 1 6.288288110424824 3.1434009992594465 0.0021210196994827825 0 0 0
20 1 7.860730452816782 4.716143431010312 1.5744486003669593 0 0 0
21 1 9.432850200112014 3.1433305327663232 0.002729160905263497 0 0 0
22 1 11.005173581131642 4.716073983262665 1.5751503786764889 0 0 0
23 1 12.577513563900409 3.1430962986394118 0.0029246474444940885 0 0 0
24 1 14.14975362320424 4.715690771926127 1.574832940957684 0 0 0
25 1 15.722207179875117 3.1427967773139844 0.0025643320092182467 0 0 0
26 1 17.29466598347998 4.715175866719987 1.5736928242336257 0 0 0
27 1 18.86660969626196 3.1427757746908727 0.001744115452839495 0 0 0
28 1 20.43846075972652 4.715517181452983 1.572942031499182 0 0 0
29 1 0.0008570091300855323 6.287758433621507 0.0011010879880020605 0 0 0
30 1 1.5725055935642764 7.860340683777214 1.5724246589090767 0 0 0
31 1 3.14421430187719 6.287898176115677 0.0012365836386932817 0 0 0
32 1 4.716135790934968 7.860454598295671 1.572650920646884 0 0 0
33 1 6.28803297604827 6.287447694459608 0.0026272466467863486 0 0 0
34 1 7.86052939958303 7.860416673809465 1.5739966958748262 0 0 0
35 1 9.432864098409881 6.287214145180267 0.003770770700183128 0 0 0
36 1 11.00518967137158 7.860255527394811 1.5753077180645254 0 0 0
37 1 12.577806108348213 6.286956503527759 0.004275058060872908 0 0 0
38 1 14.150271298048155 7.859931830586173 1.5747194648092988 0 0 0
39 1 15.72310550189149 6.2866624895825325 0.0035923635979426727 0 0 0
40 1 17.29511633013552 7.859770395268095 1.5733504811062 0 0 0
41 1 18.86710574393295 6.287255038621915 0.0018810479383491172 0 0 0
42 1 20.438754709438232 7.8600852783486195 1.5726778209099095 0 0 0
43 1 0.0010101166439095014 9.432412689862083 0.0005926943767601524 0 0 0
44 1 1.572482552312817 11.004914036817135 1.5718131435306892 0 0 0
45 1 3.1444285380179195 9.432547997381228 0.0004685307488454688 0 0 0
46 1 4.716035123565056 11.005069700994389 1.5716769082597837 0 0 0
47 1 6.28832444672875 9.432499395947993 0.001048065774510431 0 0 0
48 1 7.860255843186601 11.005172256070571 1.5721577460335039 0 0 0
49 1 9.432680276157807 9.432013406575132 0.003159236729503928 0 0 0
50 1 11.005106626978762 11.005237540348684 1.5736699791565067 0 0 0
51 1 12.578078316471311 9.431760747453065 0.00429590607120337 0 0 0
52 1 14.150542191063632 11.004961485819688 1.5728936177669643 0 0 0
53 1 15.723294241704512 9.431843836972204 0.002710825774959385 0 0 0
54 1 17.295191128053904 11.004816391923281 1.5723534695042896 0 0 0
55 1 18.86721496702635 9.432147222460147 0.001290119986051269 0 0 0
56 1 20.438749324314887 11.00480818807031 1.5720684396479785 0 0 0
57 1 0.0008471849879206088 12.576937787069078 22.009517994667156 0 0 -1
58 1 1.5722424161808028 14.149393354565948 1.571327478930911 0 0 0
59 1 3.1443527092628614 12.576991264525587 22.009227169479978 0 0 -1
60 1 4.715765639066876 14.149666604406471 1.5708389857537988 0 0 0
61 1 6.2882662197028925 12.577028601533945 22.00917735964481 0 0 -1
62 1 7.8599603326993535 14.15015762879928 1.5706369147500503 0 0 0
63 1 9.432493330205887 12.577282004588326 0.0008311236002074669 0 0 0
64 1 11.004849847109526 14.15047776577802 1.5708388604082537 0 0 0
65 1 12.577903009248441 12.577374605955443 0.0018488292701917966 0 0 0
66 1 14.150312035353416 14.150330405892792 1.5709945494692876 0 0 0
67 1 15.722997471852363 12.577199432213563 0.0011347729453202197 0 0 0
68 1 17.294961692244488 14.149852881418525 1.5713612786721687 0 0 0
69 1 18.866952737558858 12.577001008134202 0.00041989369032950034 0 0 0
70 1 20.438508997443254 14.14942428641271 1.5715397929690287 0 0 0
71 1 0.0005081763224165581 15.72121528213459 22.00920098158794 0 0 -1
72 1 1.5719691349704465 17.293694344864168 1.5713217701162432 0 0 0
73 1 3.1440616120323543 15.721313928996963 22.00892805635451 0 0 -1
74 1 4.715472463946631 17.29440264766608 1.5708062570607098 0 0 0
75 1 6.287890105215285 15.721806188428904 22.008924152567367 0 0 -1
76 1 7.859951555352695 17.2948195445417 1.570676274050929 0 0 0
77 1 9.432430539834685 15.722072912928033 22.00897406432572 0 0 -1
78 1 11.00479852110858 17.294921048637068 1.5707490133241204 0 0 0
79 1 12.57737321357426 15.722020175175777 22.00920125231782 0 0 -1
80 1 14.14978786639801 17.294712746465272 1.5708688022786215 0 0 0
81 1 15.722460226751936 15.721972929144574 22.00941397355633 0 0 -1
82 1 17.29453693019268 17.294373215346102 1.5710649763896243 0 0 0
83 1 18.866526922878496 15.721498308800754 22.009377796792062 0 0 -1
84 1 20.438163207282464 17.293712334291985 1.5714653355842267 0 0 0
85 1 0.0001625403632419236 18.86520530141059 22.0094256079408 0 0 -1
86 1 1.571862083401388 20.437666061882204 1.5718494037891377 0 0 0
87 1 3.1437815573777494 18.865604769843262 22.009375116006094 0 0 -1
88 1 4.715907311168664 20.438171306866042 1.5718354269423995 0 0 0
89 1 6.288024531457882 18.865924472263565 22.009331898856026 0 0 -1
90 1 7.860301371292355 20.438519724040876 1.571919621047989 0 0 0
91 1 9.432565450189157 18.86603060499709 22.00934846787218 0 0 -1
92 1 11.004863329243388 20.43851838262073 1.57204037828186 0 0 0
93 1 12.577215024920061 18.86588407172884 22.00943785460094 0 0 -1
94 1 14.149456981728425 20.43824014719281 1.5720914322407227 0 0 0
95 1 15.721826380108045 18.865655573859566 22.00948328972034 0 0 -1
96 1 17.29388832067472 20.43784803862199 1.5720433140477734 0 0 0
97 1 18.866043679330968 18.865367812958464 22.009405255575015 0 0 -1
98 1 20.437863009595823 20.437489533817626 1.5719418834077066 0 0 0
99 1 22.009545970038488 22.009461606420214 3.1440785722234126 -1 -1 0
100 1 1.5716046961647592 1.5718027469758928 4.716000565605456 0 0 0
101 1 3.1437320622098244 0.00046765352201258323 3.1439543695551775 0 0 0
102 1 4.715805288275938 1.5726311161689859 4.716179167791685 0 0 0
103 1 6.288153475367868 0.0012332881775320727 3.1442186559711813 0 0 0
104 1 7.8606313682544915 1.5737865514212603 4.716954754094261 0 0 0
105 1 9.432643881866994 0.0015691119373762484 3.144477554035681 0 0 0
106 1 11.004980904448045 1.5739794860612166 4.717293131472658 0 0 0
107 1 12.577138668633454 0.0013729335581260152 3.1445849449256498 0 0 0
108 1 14.149284897490721 1.573358157013018 4.71717662043327 0 0 0
109 1 15.721619016645782 0.0008112307968794801 3.144480967602651 0 0 0
110 1 17.29394710780781 1.572125491338982 4.716527960458486 0 0 0
111 1 18.86593824484499 0.00014020642459157184 3.1441954083348134 0 0 0
112 1 20.437833442509053 1.5715943367508742 4.716231206704891 0 0 0
113 1 0.00027636193581488596 3.143596975649245 3.144350716920327 0 0 0
114 1 1.5717149113281526 4.715672976693902 4.715955891703559 0 0 0
115 1 3.1437286011072407 3.143732013028336 3.144229874238719 0 0 0
116 1 4.714965946615277 4.7153374670365436 4.715337837175805 0 0 0
117 1 6.288538355276761 3.1446622918592175 3.145284676732155 0 0 0
118 1 7.861179393670293 4.717470351970639 4.718085591949305 0 0 0
119 1 9.432966294446254 3.1451085002003083 3.1461243023884307 0 0 0
120 1 11.005200050885568 4.717843563668464 4.719060376385159 0 0 0
121 1 12.57718960902315 3.1448825186604656 3.1462405706042533 0 0 0
122 1 14.149310506955224 4.716956477921928 4.718174605102092 0 0 0
123 1 15.721689279557983 3.144141994026426 3.1455750847003165 0 0 0
124 1 17.295201956531923 4.714903760516396 4.715890721604386 0 0 0
125 1 18.866402287085798 3.1433827629823314 3.1445787191793895 0 0 0
126 1 20.438423478072114 4.7154368298082545 4.716164573310647 0 0 0
127 1 0.0006238354527138555 6.2879746692852025 3.144319671931382 0 0 0
128 1 1.5719180369808154 7.8603729344335145 4.71580526705434 0 0 0
129 1 3.1439259809150193 6.2881883276074815 3.1442271225059337 0 0 0
130 1 4.715111169717741 7.860571137342056 4.715447869723138 0 0 0
131 1 6.287969754454339 6.2882271960663845 3.14455738215279 0 0 0
132 1 7.859905300237273 7.861023952936496 4.715515362057938 0 0 0
133 1 9.433113093033345 6.288986116544081 3.146844123362228 0 0 0
134 1 11.005304488088035 7.861761516778212 4.719079698012422 0 0 0
135 1 12.577349056940209 6.288757232558352 3.1469527030894033 0 0 0
136 1 14.15084582941016 7.860562605201832 4.715655327067938 0 0 0
137 1 15.722669682095542 6.287653298751331 3.1450609637019995 0 0 0
138 1 17.295832539286643 7.859766194333107 4.715461113185851 0 0 0
139 1 18.866889378091578 6.287656289809315 3.144529685235623 0 0 0
140 1 20.438799814789 7.860087543000287 4.715881507877117 0 0 0
141 1 0.000741834372272155 9.432636044613634 3.1439002877667304 0 0 0
142 1 1.5718097829005728 11.00522114114677 4.7153160268658905 0 0 0
143 1 3.1438974996111555 9.432846925988006 3.1437262337743954 0 0 0
144 1 4.714704271040416 11.005706106002751 4.714587296948651 0 0 0
145 1 6.287729111947148 9.433075776496901 3.1437459699263437 0 0 0
146 1 7.858823311006432 11.006436760177387 4.713866203801567 0 0 0
147 1 9.432937189187852 9.43359135725558 3.1452995747215002 0 0 0
148 1 11.005131962796609 11.007145775135006 4.716447397043483 0 0 0
149 1 12.577499439298533 9.433365560248209 3.145370428202797 0 0 0
150 1 14.15214328966316 11.006034741567664 4.712580762171868 0 0 0
151 1 15.723301608334557 9.432485789805119 3.1438796740732844 0 0 0
152 1 17.29620581283997 11.005299839346128 4.714340452200027 0 0 0
153 1 18.867183599145047 9.432461553167462 3.1439480331941767 0 0 0
154 1 20.438850947380484 11.005059537123122 4.7153431831983825 0 0 0
155 1 0.0005951296004579672 12.577333542961359 3.1433894223759946 0 0 0
156 1 1.5714468831835986 14.150025370272587 4.71492891934026 0 0 0
157 1 3.1436309534646876 12.577571205555818 3.1430104397184038 0 0 0
158 1 4.7141093424985465 14.151019817672944 4.713622626329647 0 0 0
159 1 6.28727321340139 12.578091267467322 3.1422953669778124 0 0 0
160 1 7.858087031714501 14.152956667174525 4.710730765278692 0 0 0
161 1 9.432416188980904 12.578452385863779 3.142350212226793 0 0 0
162 1 11.00465365895611 14.153883200890027 4.7106706452066165 0 0 0
163 1 12.57769366082799 12.578496685167838 3.141971895742049 0 0 0
164 1 14.152153677119506 14.153181714085814 4.710053674662655 0 0 0
165 1 15.723443286008024 12.578097913546264 3.14223992847703 0 0 0
166 1 17.296211077872208 14.151128980214537 4.713481639726876 0 0 0
167 1 18.867139601965587 12.577497928280543 3.143199960016356 0 0 0
168 1 20.4386490383035 14.14998592143775 4.714988537409502 0 0 0
169 1 0.0003105729585944657 15.721855199276785 3.1431737136765845 0 0 0
170 1 1.5710957810986625 17.294602029335252 4.714917521449367 0 0 0
171 1 3.143298087516177 15.722259161700938 3.1426217532534446 0 0 0
172 1 4.713440436721374 17.296735467906007 4.713005606310507 0 0 0
173 1 6.286770310793903 15.723516701484018 3.1411819900484343 0 0 0
174 1 7.858816662103563 17.29743023208454 4.712810013474449 0 0 0
175 1 9.431929188427077 15.724063345745982 3.1411259963124136 0 0 0
176 1 11.004674722412387 17.297623953595192 4.712789754877703 0 0 0
177 1 12.577621774014531 15.723993305557771 3.1411460501645814 0 0 0
178 1 14.150644933042104 17.297147741417188 4.7129715279301445 0 0 0
179 1 15.723271068248213 15.723613298876645 3.141364679161122 0 0 0
180 1 17.295937747941693 17.296381187259716 4.713571059125125 0 0 0
181 1 18.86688592600375 15.722333449658757 3.142835241208955 0 0 0
182 1 20.438288204445918 17.294490663111787 4.715118908427659 0 0 0
183 1 3.1087860629574275e-05 18.86600210006911 3.143424239922901 0 0 0
184 1 1.5713285359036038 20.438178307684325 4.7156115254872875 0 0 0
185 1 3.1431709612228986 18.866750852184495 3.142889356271662 0 0 0
186 1 4.715101584312585 20.43945419979507 4.715119936848145 0 0 0
187 1 6.287475731169139 18.86746741849246 3.1426528619884824 0 0 0
188 1 7.859869249534395 20.440291799021637 4.715160067086576 0 0 0
189 1 9.432265849270388 18.867815977441644 3.1426592328802276 0 0 0
190 1 11.004776956649577 20.440390482547002 4.715267753622136 0 0 0
191 1 12.577266631862974 18.867666667310544 3.1427525240828884 0 0 0
192 1 14.149652854388448 20.439879185097382 4.715395836671432 0 0 0
193 1 15.722148433474706 18.86719250729184 3.142915958758546 0 0 0
194 1 17.294250436471998 20.43894903676631 4.715511944990617 0 0 0
195 1 18.866424759006343 18.86650486712675 3.1431930459168447 0 0 0
196 1 20.437694123749395 20.43790679206422 4.715869156268619 0 0 0
197 1 22.009149394914708 22.009452134456946 6.288211050623818 -1 -1 0
198 1 1.5711214096630424 1.5714769068735983 7.860317252483889 0 0 0
199 1 3.1430063362432503 0.0005941842818679163 6.287747772218102 0 0 0
200 1 4.714766383936896 1.571859382809126 7.859892845605305 0 0 0
201 1 6.287598852924615 0.0020959423217947995 6.2878264412304015 0 0 0
202 1 7.860289268602842 1.5738251215512953 7.860798296710101 0 0 0
203 1 9.432530237001094 0.0030050597448073365 6.2881406527042785 0 0 0
204 1 11.005056183658441 1.574734937498299 7.8613571781130815 0 0 0
205 1 12.577199777228802 0.002682302990352168 6.288288862838841 0 0 0
206 1 14.14958482555801 1.573149838663278 7.861121004062231 0 0 0
207 1 15.721861449241365 0.001379002485055628 6.288232517245501 0 0 0
208 1 17.29430217796559 1.571281088761598 7.860560030468007 0 0 0
209 1 18.865871540086403 6.729115307523579e-06 6.28827075014865 0 0 0
210 1 20.437615945511954 1.5712351788874162 7.860608612492297 0 0 0
211 1 22.009407224747637 3.1432730404146767 6.288112414379761 -1 0 0
212 1 1.5706280335008382 4.714818255870143 7.859836998372559 0 0 0
213 1 3.142823212312466 3.143232910781903 6.287553704088406 0 0 0
214 1 4.712560192288631 4.713163160115221 7.858025094984765 0 0 0
215 1 6.288123271061683 3.1445661627567048 6.288641372244737 0 0 0
216 1 7.86097685267137 4.716635588908404 7.862156485122473 0 0 0
217 1 9.43327893024926 3.1464320268672576 6.290127167640644 0 0 0
218 1 11.00549654194404 4.7200504794741205 7.864573066868006 0 0 0
219 1 12.576998636193549 3.1461508318601643 6.290240842815846 0 0 0
220 1 14.150082200608436 4.715899633782938 7.862044160174507 0 0 0
221 1 15.721971562954517 3.1439439802374336 6.288944816021489 0 0 0
222 1 17.29652463217567 4.713440657994643 7.859327877887438 0 0 0
223 1 18.86655354605392 3.1429851064312158 6.288132257266456 0 0 0
224 1 20.43844211069703 4.714814147593046 7.86026094175242 0 0 0
225 1 0.0002747540687550618 6.287702381684396 6.2879999349568125 0 0 0
226 1 1.5708046798059125 7.860109688388951 7.859970053972841 0 0 0
227 1 3.1423988794104694 6.287555660853969 6.2873278838181745 0 0 0
228 1 4.711514459961761 7.8594323841317895 7.858432078340256 0 0 0
229 1 6.284682698384638 6.285662188726108 6.28486813651193 0 0 0
230 1 7.84992884144908 7.85331957146197 7.850453339055304 0 0 0
231 1 9.434230190032354 6.291093810357626 6.292121729856622 0 0 0
232 1 11.006867795136914 7.867925215198019 7.869223703894904 0 0 0
233 1 12.576950091267143 6.290705386963073 6.291752679422789 0 0 0
234 1 14.161066459822445 7.853340155654975 7.851523064393755 0 0 0
235 1 15.725623854632246 6.285307153491021 6.2856500458694144 0 0 0
236 1 17.299045833956015 7.858461495331352 7.858571553755667 0 0 0
237 1 18.867795897628742 6.287048100445114 6.287642108811455 0 0 0
238 1 20.43919993517644 7.859786621077647 7.86007232158174 0 0 0
239 1 0.00043143092261622594 9.43263383489049 6.287656996237828 0 0 0
240 1 1.5707317914102867 11.005310448679602 7.859548635478537 0 0 0
241 1 3.1424230277637397 9.432894426582168 6.287143592810544 0 0 0
242 1 4.711540317257737 11.006267583186041 7.857555012653295 0 0 0
243 1 6.2852692295453805 9.433371678403853 6.285842373800256 0 0 0
244 1 7.8529032028335015 11.008591306762025 7.853254210247393 0 0 0
245 1 9.432406548691114 9.435496587842904 6.286660945279146 0 0 0
246 1 11.006873406071232 11.01289969805826 7.867720383526747 0 0 0
247 1 12.578906249531508 9.435276225691476 6.285917429236497 0 0 0
248 1 14.16075667353383 11.007531371919221 7.848247367194223 0 0 0
249 1 15.72630851999559 9.432124390472552 6.284783518184591 0 0 0
250 1 17.299345823378005 11.005428293376792 7.857033285008599 0 0 0
251 1 18.868271328915714 9.432327436400366 6.287055538654863 0 0 0
252 1 20.439199896315678 11.005047247281203 7.85959351942881 0 0 0
253 1 0.00020495038288508114 12.577637072350335 6.287290274957543 0 0 0
254 1 1.5702512106139497 14.150215028536612 7.859522101879787 0 0 0
255 1 3.1419753886308865 12.578276498422058 6.286518985283402 0 0 0
256 1 4.710278685703518 14.152947660826479 7.857077612730979 0 0 0
257 1 6.284289536542042 12.580026575042329 6.284149550836117 0 0 0
258 1 7.844398093174884 14.167881305372733 7.8427038249199565 0 0 0
259 1 9.430711405466843 12.582277570171481 6.280544013326529 0 0 0
260 1 11.004437213755114 14.16379699977539 7.846390780796807 0 0 0
261 1 12.580022451188482 12.582542013946664 6.277522208040008 0 0 0
262 1 14.166133266932214 14.167767066931487 7.8415393132684015 0 0 0
263 1 15.726793292498492 12.58008049151967 6.282581284022967 0 0 0
264 1 17.29922196358755 14.152625846987842 7.856896990417794 0 0 0
265 1 18.868233499567474 12.57801827064578 6.286418339513056 0 0 0
266 1 20.438618088090543 14.149985152468828 7.859647424042619 0 0 0
267 1 22.00932115056957 15.722293492668518 6.287335587219374 -1 0 0
268 1 1.570073290928772 17.29475646343271 7.859594137825988 0 0 0
269 1 3.141266435843137 15.723573788806418 6.2861339675000885 0 0 0
270 1 4.711810079007913 17.298088335187177 7.857281174704048 0 0 0
271 1 6.281604044303889 15.729082467260323 6.28079872409076 0 0 0
272 1 7.856402054717104 17.30235081936113 7.85544022127731 0 0 0
273 1 9.430289217706052 15.728907542035707 6.281703043927207 0 0 0
274 1 11.004658035164159 17.301996063257235 7.855066888572435 0 0 0
275 1 12.578973094357785 15.728559018174332 6.281459314686067 0 0 0
276 1 14.152673089065201 17.301190647214728 7.855761300734925 0 0 0
277 1 15.727800514987278 15.728650892409211 6.281341355694291 0 0 0
278 1 17.2950644480973 17.29548833041367 7.859424536181408 0 0 0
279 1 18.86795096632005 15.723325548321817 6.2864367237782135 0 0 0
280 1 20.43736095533948 17.2940012669781 7.8601905662085585 0 0 0
281 1 22.00892703074579 18.866170787046972 6.2878000167373305 -1 0 0
282 1 1.5707959312339632 20.438056111837657 7.8601351596256235 0 0 0
283 1 3.1421117363673097 18.867493311466813 6.286847978102954 0 0 0
284 1 4.714246187475352 20.43980501335288 7.85933373360198 0 0 0
285 1 6.285946060676965 18.869903316677906 6.285668243903095 0 0 0
286 1 7.859236029337074 20.441720176601663 7.859071805115482 0 0 0
287 1 9.431690464245232 18.8704902101887 6.285602084280815 0 0 0
288 1 11.004806181111396 20.441903803054274 7.859105413676941 0 0 0
289 1 12.577654115385515 18.87011098765027 6.28572518819341 0 0 0
290 1 14.150021524664254 20.440699873332736 7.859504465647299 0 0 0
291 1 15.723156175374442 18.869139560915965 6.286199662097816 0 0 0
292 1 17.29402284514541 20.43828195429507 7.860254637018234 0 0 0
293 1 18.86618571937613 18.86656869547382 6.28768746743988 0 0 0
294 1 20.43725034188527 20.43750829624987 7.860489457721029 0 0 0
295 1 22.008853844594 22.00897649830508 9.432826335897946 -1 -1 0
296 1 1.57090894638369 1.5708615184367736 11.005200079218582 0 0 0
297 1 3.1426026580040656 0.0001332629207856005 9.432478553244572 0 0 0
298 1 4.714336363513709 1.5709105665513265 11.005062226851523 0 0 0
299 1 6.28691238000035 0.0014780857852216298 9.432219138819251 0 0 0
300 1 7.8596507426645035 1.5715978076439865 11.005402319354465 0 0 0
301 1 9.432366121774677 0.002882760262256585 9.432446916115543 0 0 0
302 1 11.005059027252852 1.5723873531683823 11.005792068981973 0 0 0
303 1 12.577382444898172 0.0022037021187090292 9.432684967879084 0 0 0
304 1 14.150120329028839 1.5706858963269457 11.005698021811115 0 0 0
305 1 15.721998140960599 2.7817540339127616e-05 9.432839028373293 0 0 0
306 1 17.294438562937497 1.5701722548260706 11.005530595191239 0 0 0
307 1 18.8656689654798 22.008782140802364 9.432969448561533 0 -1 0
308 1 20.437560303620213 1.5705410540485951 11.00538179207733 0 0 0
309 1 22.009148476968836 3.1427681536123844 9.432826406491603 -1 0 0
310 1 1.5703819645568093 4.714183846327456 11.00520520767508 0 0 0
311 1 3.1422073019802426 3.142550674158921 9.432407163543072 0 0 0
312 1 4.712088031555651 4.7122931018477034 11.004776863868791 0 0 0
313 1 6.286124465057926 3.141767463819787 9.43213013979136 0 0 0
314 1 7.85705291111232 4.70952728712861 11.005446763205661 0 0 0
315 1 9.432879642015726 3.1453344812910693 9.43404250651367 0 0 0
316 1 11.005529156888134 4.7140812639666185 11.008234356954151 0 0 0
317 1 12.577623450654668 3.144954903325508 9.434273641205161 0 0 0
318 1 14.153022497439391 4.710391454960985 11.006074149545347 0 0 0
319 1 15.723319193792904 3.141735424516637 9.432898179619158 0 0 0
320 1 17.296652438067596 4.7128130095725025 11.005677318513126 0 0 0
321 1 18.86662368740059 3.1423880568513614 9.432980737094876 0 0 0
322 1 20.438433439965067 4.714167269354666 11.00546116345391 0 0 0
323 1 22.009257943356086 6.286987205050939 9.432610619686194 -1 0 0
324 1 1.5694973831669716 7.859209122367395 11.005083678637 0 0 0
325 1 3.139690764669432 6.285753143494568 9.431335991288195 0 0 0
326 1 4.705495402926219 7.8556291312709305 11.003330141863271 0 0 0
327 1 6.277399113248177 6.278822180062899 9.42529697077357 0 0 0
328 1 7.826130677947266 7.83162488078947 10.983750963733291 0 0 0
329 1 9.435027820566884 6.292449302516372 9.440396615829581 0 0 0
330 1 11.017285521636708 7.860464025439527 10.998761343039895 0 0 0
331 1 12.579138649672 6.291111088406207 9.438815275244144 0 0 0
332 1 14.174632483200508 7.839774253609375 10.993196460349514 0 0 0
333 1 15.730222113164603 6.281241774524374 9.428624974328878 0 0 0
334 1 17.301021330404602 7.856950517311652 11.005508469351476 0 0 0
335 1 18.868827887216362 6.286133521603757 9.432437064166393 0 0 0
336 1 20.439224677930408 7.859161482237988 11.0054298392401 0 0 0
337 1 3.3503038344851437e-06 9.432497771900547 9.432591577803342 0 0 0
338 1 1.5706816739297165 11.00496139069978 11.004934178187018 0 0 0
339 1 3.140576908975702 9.43293541052215 9.43206110547602 0 0 0
340 1 4.713596924733371 11.00547307247504 11.004267763989507 0 0 0
341 1 6.277893206250628 9.433124305683926 9.429520364350712 0 0 0
342 1 7.863509312479247 11.004950931725768 10.998771542291149 0 0 0
343 1 9.400425100640007 9.41138901897361 9.41093908325713 0 0 0
344 1 11.021713675626101 11.094322157185749 10.713135897295892 0 0 0
345 1 12.615400102110502 9.41472701464828 9.410940833041264 0 0 0
346 1 14.154804028289213 11.004636325383382 10.988714655752169 0 0 0
347 1 15.73405389665688 9.430907180003235 9.428478558506743 0 0 0
348 1 17.29638290799068 11.003908325583248 11.004771996735366 0 0 0
349 1 18.869398198017702 9.432174619778026 9.432222410832717 0 0 0
350 1 20.438223868593973 11.004572459480453 11.005287971385378 0 0 0
351 1 22.009129500643297 12.577285092590122 9.432433809126968 -1 0 0
352 1 1.5697674927263157 14.149758792006628 11.0047986836351 0 0 0
353 1 3.140660040674502 12.577973459256327 9.43179345285024 0 0 0
354 1 4.709337938863148 14.153299798537947 11.00358253427596 0 0 0
355 1 6.27760124511243 12.581282333251115 9.428817372939003 0 0 0
356 1 7.8385730764565045 14.174776464206401 10.99090915513348 0 0 0
357 1 9.388491657850384 12.627837801207859 9.396063778383038 0 0 0
358 1 11.007404070797298 14.16577451919745 10.983704500223778 0 0 0
359 1 12.626268476629665 12.627241080913063 9.384924064338858 0 0 0
360 1 14.15085194339705 14.151147045262435 11.002973950646632 0 0 0
361 1 15.733477369455901 12.580873040716453 9.426189534490646 0 0 0
362 1 17.293159829356494 14.14826945215484 11.00561139514466 0 0 0
363 1 18.868333272341868 12.577336569074994 9.431971010099803 0 0 0
364 1 20.436854455052575 14.14894846362945 11.005104369666375 0 0 0
365 1 22.008268867200425 15.721795098017637 9.432477111744394 -1 0 0
366 1 1.5699084244262365 17.2941554759582 11.004735045475076 0 0 0
367 1 3.1400977822077456 15.723812033587077 9.431284820746667 0 0 0
368 1 4.712268434774147 17.297131655566382 11.003884604503078 0 0 0
369 1 6.2789854902307605 15.731642600912934 9.425819010873486 0 0 0
370 1 7.855428394651645 17.304034559663062 11.001950389535875 0 0 0
371 1 9.42786264796021 15.738959299843842 9.42478967585357 0 0 0
372 1 11.004708577026815 17.302356428106823 11.000932346313899 0 0 0
373 1 12.581768698786854 15.73705376569871 9.423911082950294 0 0 0
374 1 14.150370232135163 17.296232155193103 11.00359448913497 0 0 0
375 1 15.723915327183983 15.724338983159146 9.431130820267265 0 0 0
376 1 17.29321508003805 17.292968353611833 11.00515398998556 0 0 0
377 1 18.86584571321425 15.721583296841816 9.43272920346191 0 0 0
378 1 20.436589599867464 17.293084103010226 11.005065582896782 0 0 0
379 1 22.008413521474825 18.865668561923695 9.432631530490875 -1 0 0
380 1 1.5706174304995852 20.43746426758151 11.004976200014587 0 0 0
381 1 3.1417348333779866 18.867182009008207 9.43196693612922 0 0 0
382 1 4.714127760330497 20.438987296834178 11.00461616211758 0 0 0
383 1 6.285051583813095 18.870733560759327 9.430569107504013 0 0 0
384 1 7.858958142401415 20.441208876492144 11.004309766679256 0 0 0
385 1 9.431409062032976 18.87266761475071 9.43023398278432 0 0 0
386 1 11.004843619274132 20.44097119105665 11.004303642048574 0 0 0
387 1 12.577886447923607 18.87130544590863 9.430509332794983 0 0 0
388 1 14.149762071704956 20.438419581204943 11.00477814334807 0 0 0
389 1 15.72227943835771 18.867230511124138 9.43206654915581 0 0 0
390 1 17.293576724808364 20.43676898694838 11.005194109319337 0 0 0
391 1 18.865386780099136 18.865437967570294 9.432807832231514 0 0 0
392 1 20.436968417955544 20.43674302691162 11.005178525996007 0 0 0
393 1 22.0088249869671 22.008323570545784 12.577570852002715 -1 -1 0
394 1 1.571010563559752 1.5702881164945937 14.150200988185308 0 0 0
395 1 3.1425758796208583 22.008900135938184 12.577532837740957 0 -1 0
396 1 4.714374952260067 1.5699086818850905 14.150610299143537 0 0 0
397 1 6.286783031221936 6.717294779962168e-05 12.577584985688954 0 0 0
398 1 7.859522786847254 1.5693832566302592 14.150979823016913 0 0 0
399 1 9.432350851810943 0.0007392035704592093 12.577712403013665 0 0 0
400 1 11.005147156241696 1.569523845506308 14.151296500821639 0 0 0
401 1 12.577474551250878 22.009009543645977 12.57780293336086 0 -1 0
402 1 14.150460356793255 1.5684674351467989 14.151090286520603 0 0 0
403 1 15.722001465553005 22.0078010162675 12.577770506033618 0 -1 0
404 1 17.294658791524718 1.569077112110577 14.15062282204603 0 0 0
405 1 18.865634653364488 22.007844804814827 12.577687241140875 0 -1 0
406 1 20.4377064803927 1.5699426093937856 14.15021733580169 0 0 0
407 1 22.00917327385878 3.142150308127998 12.577896308503936 -1 0 0
408 1 1.5705347025759089 4.713720400457371 14.150770004766024 0 0 0
409 1 3.1420454617145657 3.141755345321183 12.57795671241514 0 0 0
410 1 4.712059110557492 4.711215015194106 14.152115960380687 0 0 0
411 1 6.285539864384333 3.1400347129987454 12.578370806541157 0 0 0
412 1 7.856786198656067 4.705937425685619 14.154056568576294 0 0 0
413 1 9.432334143186667 3.1410038026219667 12.579307390932739 0 0 0
414 1 11.005665497944307 4.708889494773627 14.154838452049534 0 0 0
415 1 12.578292619661012 3.140100473564088 12.579505548820032 0 0 0
416 1 14.153739948281908 4.706995128396447 14.15449641158989 0 0 0
417 1 15.723797664129798 3.14003399532515 12.578780641114463 0 0 0
418 1 17.29722841580891 4.711616861664938 14.152136039895348 0 0 0
419 1 18.866830113025376 3.1414961236342047 12.578185985382172 0 0 0
420 1 20.438728751164646 4.7136646802739275 14.15082024613856 0 0 0
421 1 22.009295180304385 6.286402914635772 12.578041557865456 -1 0 0
422 1 1.5701404426698724 7.859006815866628 14.150598299028594 0 0 0
423 1 3.1397363140239642 6.284972511134246 12.578273695195227 0 0 0
424 1 4.707214763266611 7.855132858989704 14.153322854418294 0 0 0
425 1 6.278619533266096 6.278310362344033 12.579598276224987 0 0 0
426 1 7.82950824967666 7.824656145062799 14.18136238285108 0 0 0
427 1 9.428690826476167 6.279615375532054 12.582283559030113 0 0 0
428 1 11.017501463136249 7.841650409872467 14.173535094880558 0 0 0
429 1 12.58221726014908 6.276212985023785 12.582878269335852 0 0 0
430 1 14.174355463599383 7.833721957756869 14.176858401870438 0 0 0
431 1 15.729062901333018 6.280590823541569 12.580581881667111 0 0 0
432 1 17.300718964588416 7.856482168135608 14.152839993909794 0 0 0
433 1 18.86893588618257 6.285180525401487 12.578630490344434 0 0 0
434 1 20.43939113968245 7.85892190227039 14.150658965902617 0 0 0
435 1 22.009363895131273 9.432066156624108 12.577750742681703 -1 0 0
436 1 1.5716167977778757 11.004606881499663 14.149880106273244 0 0 0
437 1 3.139973286857782 9.431945653049434 12.577704459861005 0 0 0
438 1 4.715548216455113 11.004892880106958 14.149849566845232 0 0 0
439 1 6.272081389587725 9.425248874834365 12.57803692385728 0 0 0