LAMMPS data file via write_data, version 2 Aug 2023, timestep = 33, units = metal

690 atoms
3 atom types

0 22.009546999999998 xlo xhi
0 22.009546999999998 ylo yhi
0 22.009546999999998 zlo zhi

Masses

1 183.84
2 1.008
3 4.0026

Atoms # atomic

1 1 0.0018965884815876982 22.00946166454307 0.0006690793227743611 0 -1 0
2 1 1.573293704111017 1.571024544588398 1.5720232099747498 0 0 0
3 1 3.1452117644161683 22.00936687629288 0.0009205524572426532 0 -1 0
4 1 4.71732983345509 1.5708195784766117 1.5720078397906438 0 0 0
5 1 6.289739253481209 22.009380727870166 0.0010803899496143134 0 -1 0
6 1 7.862155847427067 1.5708118760769796 1.572114488985739 0 0 0
7 1 9.434788112364874 22.00948987237631 0.001264583734096222 0 -1 0
8 1 11.007316585537113 1.5709072207000498 1.5722900091756489 0 0 0
9 1 12.57996707970378 6.159666894382236e-05 0.0013545481327669783 0 0 0
10 1 14.152400125308086 1.571043315292102 1.5723645888232562 0 0 0
11 1 15.724857415232528 0.00012521089489892583 0.0012304601094903615 0 0 0
12 1 17.29696314812749 1.5711668253028312 1.5722980896076466 0 0 0
13 1 18.8688393742392 6.301841392534024e-05 0.0009124885372648819 0 0 0
14 1 20.440207580473302 1.5713413678159318 1.5721630388463055 0 0 0
15 1 0.0019840894917579513 3.1430730776020863 0.0004313290822130837 0 0 0
16 1 1.5732241198843957 4.714828094573476 1.5713053135468344 0 0 0
17 1 3.1446559226271336 3.1423869565547893 0.0007677532874931505 0 0 0
18 1 4.71650560153807 4.7139346663875 1.5710290266168305 0 0 0
19 1 6.289371888875516 3.142252289181858 0.0008633382956377024 0 0 0
20 1 7.86181176112216 4.713801035998955 1.571224883753154 0 0 0
21 1 9.434717959884198 3.1422451622538485 0.0010431832571181007 0 0 0
22 1 11.007533560863735 4.713789487483545 1.5715098104417657 0 0 0
23 1 12.580231227822786 3.14228664287607 0.0012297126798435458 0 0 0
24 1 14.15317811438611 4.713902623829409 1.57171884509387 0 0 0
25 1 15.72542341355787 3.1423442198602465 0.0012352846440899375 0 0 0
26 1 17.297825410665368 4.714269675321658 1.5718693203920369 0 0 0
27 1 18.869260522164275 3.142763506926936 0.0008172718954158706 0 0 0
28 1 20.440467930077123 4.715051197204945 1.5717503979142105 0 0 0
29 1 0.00235380328300185 6.287420387321241 1.0986770057894256e-05 0 0 0
30 1 1.5734488898880639 7.859635036891876 1.570872292768654 0 0 0
31 1 3.1448985922337176 6.287082299151831 22.009480294485698 0 0 -1
32 1 4.716605883730674 7.859212403184474 1.570011940693786 0 0 0
33 1 6.288777378234299 6.286177876796556 0.0008999054338182627 0 0 0
34 1 7.861717266375347 7.858824511205051 1.5697771404209995 0 0 0
35 1 9.434637503569563 6.285882588714942 0.0012517442215568679 0 0 0
36 1 11.007822116144835 7.858586931540815 1.5704504743530043 0 0 0
37 1 12.580903068634314 6.285899844759238 0.0017515155311508856 0 0 0
38 1 14.153887315647246 7.858800680481154 1.5712395238653456 0 0 0
39 1 15.726598900739042 6.286010242299856 0.0017975505435572795 0 0 0
40 1 17.298289058435763 7.859224258672814 1.571614050670123 0 0 0
41 1 18.869717136195554 6.287037143566831 0.0006269235346098169 0 0 0
42 1 20.44077303714219 7.859693106046599 1.5714573623774368 0 0 0
43 1 0.002664539430094272 9.432265795828714 22.009390980043076 0 0 -1
44 1 1.5736715125851815 11.004724314145035 1.570905776820733 0 0 0
45 1 3.145194700822043 9.432216944245845 22.00911678201768 0 0 -1
46 1 4.716770204926894 11.00476604561149 1.5701643899267475 0 0 0
47 1 6.28919228626798 9.43218408260262 22.00921519810518 0 0 -1
48 1 7.861681026602287 11.004878449461511 1.5694794462594264 0 0 0
49 1 9.435021985374231 9.432202895590766 0.0005401188664000389 0 0 0
50 1 11.008102016121112 11.004956458228257 1.5703178507809743 0 0 0
51 1 12.581292373513236 9.432028333888947 0.0021496577426704994 0 0 0
52 1 14.15438799545856 11.004928845749445 1.571415893313214 0 0 0
53 1 15.727090291787638 9.431786703199752 0.0017941651401162913 0 0 0
54 1 17.298549503309637 11.004841780402813 1.5716370253118133 0 0 0
55 1 18.87007338469873 9.43213373351464 0.0005691621887935543 0 0 0
56 1 20.441002894737256 11.004764196308203 1.5714471353060107 0 0 0
57 1 0.0027679852639143306 12.577263722976154 6.153544491897514e-06 0 0 0
58 1 1.5737185826612214 14.149720650540422 1.5713239313132012 0 0 0
59 1 3.1452834629980555 12.577352182416496 22.009412366757484 0 0 -1
60 1 4.716899744270554 14.150088550348775 1.5710096483526483 0 0 0
61 1 6.289240753889261 12.577664342883685 0.00029083313435682915 0 0 0
62 1 7.8619691442275 14.150401560348705 1.5715481417406771 0 0 0
63 1 9.435072931391566 12.577836322604453 0.001308296956231073 0 0 0
64 1 11.007776131003519 14.15090404880832 1.5719363468963778 0 0 0
65 1 12.581411210021253 12.578102201067908 0.0027128660695145074 0 0 0
66 1 14.153997853497282 14.15096982614426 1.5719029002181766 0 0 0
67 1 15.7272276731508 12.578104678610707 0.002059856376092903 0 0 0
68 1 17.29849137815221 14.150457840253313 1.57190972288827 0 0 0
69 1 18.870192624532923 12.577533712108396 0.0007146396853970277 0 0 0
70 1 20.441016156835147 14.149819918355385 1.5717210600443818 0 0 0
71 1 0.0026090384594086467 15.722052594931755 0.0003562039589792549 0 0 0
72 1 1.5736174927963629 17.29429775695459 1.5719089596990672 0 0 0
73 1 3.1451162442347447 15.722320210624043 0.0006114087126704023 0 0 0
74 1 4.716980558206187 17.29485162066354 1.572266317852925 0 0 0
75 1 6.288999129700689 15.72327682574517 0.002206044070271099 0 0 0
76 1 7.86203530571021 17.295047978470823 1.572755194388808 0 0 0
77 1 9.434734399265503 15.723828286291106 0.0027313818105515753 0 0 0
78 1 11.007475422144017 17.295324316980075 1.5729511142812416 0 0 0
79 1 12.581040852567806 15.724010137886317 0.002983217803626346 0 0 0
80 1 14.15316461314659 17.295573187964074 1.5726747601464832 0 0 0
81 1 15.726884536987372 15.723896321364093 0.0023959160763747053 0 0 0
82 1 17.29805826983689 17.295385190297324 1.5722433306565837 0 0 0
83 1 18.870012110266742 15.722649720019128 0.0009527031942193428 0 0 0
84 1 20.44079348015143 17.294403108125508 1.5720624672032957 0 0 0
85 1 0.002211665814386026 18.866320466477518 0.0007108494899346433 0 0 0
86 1 1.573484507083932 20.43796982293727 1.5723113153312291 0 0 0
87 1 3.144857705892352 18.866833212696374 0.0013791961540699812 0 0 0
88 1 4.717491444076368 20.437918477194888 1.5724854235931047 0 0 0
89 1 6.28950788808196 18.867022536551048 0.0017415487923336948 0 0 0
90 1 7.862235060955987 20.437982722967714 1.5726682709659923 0 0 0
91 1 9.43479622391999 18.867253515834516 0.001980826089399639 0 0 0
92 1 11.007310467183254 20.438149203490557 1.5728150129894156 0 0 0
93 1 12.580315387498052 18.86745144060298 0.0020896265996754844 0 0 0
94 1 14.152397840005332 20.43832818286411 1.5727656166003363 0 0 0
95 1 15.725634257231691 18.86751962112897 0.0018086136288732605 0 0 0
96 1 17.29705249142287 20.438386386533153 1.5725153092682238 0 0 0
97 1 18.869513084987616 18.86693008305471 0.001071991694991354 0 0 0
98 1 20.4403731351788 20.438050769923464 1.5723013172680336 0 0 0
99 1 0.0017819542895736176 22.00930179164615 3.143860811685059 0 -1 0
100 1 1.572637708708046 1.5706158311693208 4.71500290327821 0 0 0
101 1 3.1451949600829074 22.009011490963882 3.1436327931355006 0 -1 0
102 1 4.716683762806645 1.5699747206067216 4.714525118660867 0 0 0
103 1 6.289731921480895 22.008885072149454 3.143678858970944 0 -1 0
104 1 7.861861879329625 1.5699997714196379 4.714589274239946 0 0 0
105 1 9.434671915510007 22.008983527841714 3.143795880304862 0 -1 0
106 1 11.007207740080231 1.570204709795288 4.714772346997324 0 0 0
107 1 12.57974323953485 22.009172809024125 3.1439027227047007 0 -1 0
108 1 14.152456185165342 1.5704569945979636 4.714937668566943 0 0 0
109 1 15.72461385668958 22.009406869124955 3.1438770965272553 0 -1 0
110 1 17.297222458839606 1.5706952483764622 4.7150756039293 0 0 0
111 1 18.868697665801722 22.009488611132515 3.1438443390131106 0 -1 0
112 1 20.439820299782838 1.5711583913877474 4.7156456590420595 0 0 0
113 1 0.0016538380565683038 3.142743691830945 3.143236398316107 0 0 0
114 1 1.571841954296268 4.713738767862158 4.713689208122432 0 0 0
115 1 3.1443483549690003 3.1418533408104383 3.1424761760305118 0 0 0
116 1 4.7143971884960125 4.711665536339557 4.711302132620375 0 0 0
117 1 6.289187613155827 3.141674302590344 3.142460647823675 0 0 0
118 1 7.861058560954349 4.712007475333507 4.711857977140626 0 0 0
119 1 9.434584620643289 3.141735815535364 3.142642615327619 0 0 0
120 1 11.007555886748616 4.71216084731831 4.71219570705337 0 0 0
121 1 12.580084049459806 3.1418681500157772 3.142863247988948 0 0 0
122 1 14.154067927684581 4.7122425202725795 4.712217483865107 0 0 0
123 1 15.725288356599092 3.142033160464749 3.142972388476498 0 0 0
124 1 17.298788555877074 4.712959202534775 4.713400268014918 0 0 0
125 1 18.869060299164186 3.1425454751396393 3.1433221390814996 0 0 0
126 1 20.440145943317678 4.714463570887637 4.714756072508236 0 0 0
127 1 0.0018063620472697551 6.2870924766142045 3.142698183338577 0 0 0
128 1 1.572066815132734 7.858979169646756 4.713280434113497 0 0 0
129 1 3.144014978482921 6.286314051907699 3.1413302659290006 0 0 0
130 1 4.71412862743318 7.857485814584557 4.709889981853152 0 0 0
131 1 6.28802796719662 6.2851510241199495 3.1397160087803773 0 0 0
132 1 7.859553859221057 7.855925884565141 4.7060512706168725 0 0 0
133 1 9.434498543260222 6.285162501594318 3.1402425087885746 0 0 0
134 1 11.008516711292224 7.855940384062349 4.707257353396157 0 0 0
135 1 12.580998031279675 6.285240548420777 3.140582439508158 0 0 0
136 1 14.156020778846306 7.856707341316353 4.70854017282668 0 0 0
137 1 15.726614554301193 6.285639506712245 3.1414143635879377 0 0 0
138 1 17.299177725690154 7.8584591914372535 4.71290444801833 0 0 0
139 1 18.86947258167143 6.286821833335264 3.1428067412037004 0 0 0
140 1 20.440443159399475 7.859330021071554 4.714275002229709 0 0 0
141 1 0.002081032693929579 9.43210647501914 3.142496242949998 0 0 0
142 1 1.5724125244207439 11.004592511577654 4.713390543817534 0 0 0
143 1 3.1442567109656605 9.43184108421536 3.1411868985080074 0 0 0
144 1 4.714515948169347 11.004533953260303 4.710593161032925 0 0 0
145 1 6.288111602877454 9.431410222707946 3.138936783039348 0 0 0
146 1 7.859302006264792 11.00465732733398 4.706493343726093 0 0 0
147 1 9.434785815841657 9.431539391930501 3.137777717543497 0 0 0
148 1 11.00934380301999 11.00482453383004 4.708008155779044 0 0 0
149 1 12.581376897139755 9.431506164710095 3.139299356003578 0 0 0
150 1 14.15661435033551 11.004850966354091 4.708759810864665 0 0 0
151 1 15.727037232439843 9.43160318473957 3.1412154808238255 0 0 0
152 1 17.29942792440625 11.00478244580973 4.712789015382426 0 0 0
153 1 18.869765384294283 9.432030316071108 3.142582587527283 0 0 0
154 1 20.440710546152026 11.004691611250328 4.714197749908091 0 0 0
155 1 0.0022573344826523596 12.577269637655599 3.142701383688216 0 0 0
156 1 1.5726196025192225 14.150037764153 4.71392990438074 0 0 0
157 1 3.1444817364812603 12.577395549519583 3.141662763159545 0 0 0
158 1 4.714877341374506 14.151027237961722 4.711608624046031 0 0 0
159 1 6.288340944352629 12.57783850745677 3.140043150000878 0 0 0
160 1 7.860501593533337 14.151395137133889 4.710421367727596 0 0 0
161 1 9.434866998267534 12.577675110488679 3.1396526379974175 0 0 0
162 1 11.008046589754288 14.152286940560334 4.710312616103944 0 0 0
163 1 12.581405439378523 12.57817594285058 3.1399379660924622 0 0 0
164 1 14.15614843293322 14.152918153606935 4.7091069993005865 0 0 0
165 1 15.727145228645975 12.578072453030147 3.141435699318186 0 0 0
166 1 17.299509452355764 14.151142816986395 4.713087946344355 0 0 0
167 1 18.869915510010337 12.577509986179766 3.1427130336297653 0 0 0
168 1 20.440836191421923 14.150043552212967 4.71453336298217 0 0 0
169 1 0.0022611846918186088 15.722156893357862 3.1431694922826785 0 0 0
170 1 1.5727382080066963 17.29483738837489 4.714571122741382 0 0 0
171 1 3.144645955894539 15.72252151088092 3.1424109131435256 0 0 0
172 1 4.715721613477349 17.295849045493547 4.713290969187244 0 0 0
173 1 6.288850731039057 15.72304402260673 3.142056016956522 0 0 0
174 1 7.861669741411203 17.2953046350821 4.7143559109129605 0 0 0
175 1 9.434505547881885 15.723184587482178 3.142752375355488 0 0 0
176 1 11.007158370984657 17.29563728530435 4.714392723161219 0 0 0
177 1 12.580698223188278 15.72373930326688 3.1422435470062147 0 0 0
178 1 14.153668179235167 17.296589690972965 4.71341066675023 0 0 0
179 1 15.726760387038501 15.723969622176174 3.1418677655844585 0 0 0
180 1 17.29913027983993 17.2966377835141 4.713578577702235 0 0 0
181 1 18.869797961892402 15.722710621605742 3.14307539144383 0 0 0
182 1 20.440684137827038 17.294818084798287 4.71506525521239 0 0 0
183 1 0.002083858329536564 18.866310527911676 3.1436396208058444 0 0 0
184 1 1.5729520975793796 20.438039194599632 4.7153155712727575 0 0 0
185 1 3.144919952137058 18.866593510369153 3.1433458571645594 0 0 0
186 1 4.717080932278246 20.437876901941586 4.715170532300704 0 0 0
187 1 6.2896187105356525 18.866469101752195 3.143707119675261 0 0 0
188 1 7.862052805837274 20.437751365345974 4.715352627632593 0 0 0
189 1 9.434636646898396 18.8665977042089 3.143913460627641 0 0 0
190 1 11.007140046680155 20.43796353655081 4.71544063815549 0 0 0
191 1 12.579911167464324 18.866896739665766 3.1438916681170674 0 0 0
192 1 14.15236693002138 20.43841788856238 4.715358598355765 0 0 0
193 1 15.725256237387951 18.867261588917057 3.14350406085512 0 0 0
194 1 17.297334812771748 20.43873748683686 4.715199224851955 0 0 0
195 1 18.869341484125684 18.866916373121498 3.1435252618878047 0 0 0
196 1 20.440036388536008 20.43810019495663 4.715764797376055 0 0 0
197 1 0.0013426316493692857 22.009267947676083 6.287797572264086 0 -1 0
198 1 1.5722098023303026 1.5706356822429521 7.859436527187448 0 0 0
199 1 3.144389270882296 22.008934837623954 6.286984538347108 0 -1 0
200 1 4.71570413625276 1.5691985102033976 7.858437257181332 0 0 0
201 1 6.289223832944265 22.008512958676643 6.286899605297753 0 -1 0
202 1 7.861299526060333 1.5688471305748897 7.858360480276267 0 0 0
203 1 9.434483240932169 22.00861514321209 6.2869850322690475 0 -1 0
204 1 11.007121666462691 1.5693735586082418 7.858623926634549 0 0 0
205 1 12.579755423039291 22.00903091813813 6.287134458592679 0 -1 0
206 1 14.153075002389398 1.5694966485135644 7.858765953511002 0 0 0
207 1 15.725060007341279 22.009443822434896 6.287150212642036 0 -1 0
208 1 17.29669700274462 1.5710607029139343 7.859902912476543 0 0 0
209 1 18.868317865734987 22.00951152213409 6.287912806228141 0 -1 0
210 1 20.439336928763545 1.5712799652939728 7.86005395434517 0 0 0
211 1 0.0008551902480017324 3.1424325410443656 6.287102925404419 0 0 0
212 1 1.5704757192636616 4.713203034246943 7.858128376196311 0 0 0
213 1 3.1426991890744227 3.140434287256003 6.2852150141895775 0 0 0
214 1 4.710599199713287 4.707753886800306 7.853372008796727 0 0 0
215 1 6.2878279150715315 3.13944768531172 6.284705646416227 0 0 0
216 1 7.858905186846305 4.707212693431039 7.853934711381291 0 0 0
217 1 9.43420862361524 3.1399978829530317 6.284957041605844 0 0 0
218 1 11.007309454330999 4.708733714615124 7.854770357482505 0 0 0
219 1 12.580341302530728 3.1403216941425254 6.285345559134475 0 0 0
220 1 14.157933678509515 4.706742370706714 7.853359433325222 0 0 0
221 1 15.726609946873094 3.1401561138450935 6.2853400317731705 0 0 0
222 1 17.298512155657193 4.7132398641253905 7.85858913451518 0 0 0
223 1 18.868733853458572 3.1424121925521415 6.287279402451886 0 0 0
224 1 20.439370717309323 4.714568806956945 7.859460628434807 0 0 0
225 1 0.0005640079310916599 6.286369775916291 6.286120770137128 0 0 0
226 1 1.5692298364147192 7.857978298462373 7.85704937825777 0 0 0
227 1 3.1403190291284737 6.2836184036925005 6.282726304622605 0 0 0
228 1 4.705159824900881 7.851097697264897 7.848563667894368 0 0 0
229 1 6.282178332441103 6.278936231441135 6.276666862937668 0 0 0
230 1 7.8453714652372515 7.839731393074733 7.833740294271361 0 0 0
231 1 9.433842046451552 6.2813588501268445 6.279171755895056 0 0 0
232 1 11.011652749496925 7.847606402732986 7.841580481602218 0 0 0
233 1 12.583250881691972 6.281150376476756 6.278877668295747 0 0 0
234 1 14.170833782852895 7.843109587673873 7.84002969122359 0 0 0
235 1 15.731148232421122 6.281065721897974 6.280605464817914 0 0 0
236 1 17.302104964956776 7.857161396219417 7.8563389532793755 0 0 0
237 1 18.870177229387547 6.285954938247305 6.285918114169741 0 0 0
238 1 20.439955294732716 7.859138218960181 7.858743222330605 0 0 0
239 1 0.000985236627841318 9.43176868034365 6.2858051004224755 0 0 0
240 1 1.569943847322338 11.004378161754662 7.857065846074548 0 0 0
241 1 3.1413268118481223 9.430899588514928 6.2830007995480415 0 0 0
242 1 4.70818652792911 11.003995250582372 7.851229784314471 0 0 0
243 1 6.283724019634266 9.429078068476642 6.2756501490225185 0 0 0
244 1 7.850252260883906 11.00634747561749 7.839359103754476 0 0 0
245 1 9.433735697218564 9.42926144120298 6.266904852861119 0 0 0
246 1 11.016870895731108 11.004827075224886 7.848436848781668 0 0 0
247 1 12.585170633915464 9.428694239868697 6.272261845012726 0 0 0
248 1 14.16716106042417 11.005234196904391 7.843569390492979 0 0 0
249 1 15.730627953446094 9.430212037384257 6.280925440715067 0 0 0
250 1 17.302394668448237 11.004751457547039 7.855616490892047 0 0 0
251 1 18.870512850069453 9.431648858994564 6.285452318039273 0 0 0
252 1 20.4404336908234 11.00462121261867 7.858406554618661 0 0 0
253 1 0.0013129906984248112 12.577374475824723 6.286035355788469 0 0 0
254 1 1.5703247920605359 14.150572636489589 7.857805931760663 0 0 0
255 1 3.141779171840696 12.577821032974608 6.283753328063357 0 0 0
256 1 4.707891120772461 14.155054735009207 7.851933117740452 0 0 0
257 1 6.283911808487771 12.579408628963742 6.278005090671356 0 0 0
258 1 7.850367162598743 14.15917004030275 7.846003819415321 0 0 0
259 1 9.434240345363655 12.577991572906132 6.273287183546209 0 0 0
260 1 11.008858994701404 14.156585443485685 7.848551494663231 0 0 0
261 1 12.58557070759187 12.581026379815944 6.273053192466327 0 0 0
262 1 14.172564370100938 14.168322718188039 7.839732340383828 0 0 0
263 1 15.73101123254708 12.579557944195646 6.2810529613672195 0 0 0
264 1 17.302981186667868 14.15259771598112 7.856426866195454 0 0 0
265 1 18.87079887584078 12.577798621047076 6.2855375226179655 0 0 0
266 1 20.440664655775326 14.150148626569663 7.858916197523639 0 0 0
267 1 0.0014138997208640496 15.72259419993733 6.286642873017177 0 0 0
268 1 1.5713988886736907 17.29534602158988 7.858733071314751 0 0 0
269 1 3.1419681134587414 15.724145828155116 6.284433847948201 0 0 0
270 1 4.711787376692618 17.29967682317945 7.854833473736412 0 0 0
271 1 6.285022340550618 15.726420323358397 6.281171148064059 0 0 0
272 1 7.86051551949111 17.297885619010838 7.857418707510795 0 0 0
273 1 9.433567449679526 15.724399429313403 6.284163535822222 0 0 0
274 1 11.007115016141219 17.297955257996968 7.857250221004515 0 0 0
275 1 12.58209774203367 15.726636271039746 6.281725904566174 0 0 0
276 1 14.158168847517219 17.302767924767007 7.854182829692454 0 0 0
277 1 15.731782678347827 15.728898443829122 6.280622316471838 0 0 0
278 1 17.29923813507928 17.296619494668946 7.858611016251931 0 0 0
279 1 18.870790580576422 15.723559509055805 6.286068093607057 0 0 0
280 1 20.440077988045736 17.294743595437804 7.859633966038735 0 0 0
281 1 0.0014005109203724397 18.866527585444477 6.287410686706949 0 0 0
282 1 1.5725430738636643 20.43808223303525 7.859632793590322 0 0 0
283 1 3.143462454842506 18.867691733934112 6.286008628240933 0 0 0
284 1 4.716053339086828 20.43883381345035 7.858837812013465 0 0 0
285 1 6.28882501606997 18.86742655802932 6.28636788850804 0 0 0
286 1 7.861708365402624 20.438302638998028 7.8591740646696024 0 0 0
287 1 9.434353487048888 18.86714024484535 6.286689045055366 0 0 0
288 1 11.007164581480565 20.438592672822683 7.859209993769697 0 0 0
289 1 12.580070731762252 18.867933745880077 6.286493965285417 0 0 0
290 1 14.15312658900154 20.43975027501824 7.859051811776471 0 0 0
291 1 15.726759992687198 18.869293144946404 6.285641514755891 0 0 0
292 1 17.296962372752716 20.43869510785155 7.859917871325668 0 0 0
293 1 18.86914168833449 18.867086361585834 6.2873766916102864 0 0 0
294 1 20.439617380026615 20.438062252948342 7.860099650933542 0 0 0
295 1 0.001076318077000865 22.009358607327712 9.432269351426042 0 -1 0
296 1 1.5720769522386464 1.570850419692397 11.004369881589033 0 0 0
297 1 3.144028164172167 22.00910742003612 9.431762690566702 0 -1 0
298 1 4.715389126305575 1.5696348406439673 11.003961629413372 0 0 0
299 1 6.2887851863037545 22.008942769352785 9.431660791815666 0 -1 0
300 1 7.8613295143645106 1.5693098355557173 11.004346247974174 0 0 0
301 1 9.43437813072645 22.008768263162022 9.431694102051459 0 -1 0
302 1 11.006985647915847 1.569047934351854 11.00466346145862 0 0 0
303 1 12.579962491306595 22.009328194199217 9.431968487422315 0 -1 0
304 1 14.152614792725705 1.5707468223674987 11.004785392524258 0 0 0
305 1 15.724719856762913 0.00023259927262831676 9.432355972937938 0 0 0
306 1 17.296511762928862 1.5713985984552425 11.004758978518428 0 0 0
307 1 18.86803242258916 9.06422069272329e-05 9.4324547313525 0 0 0
308 1 20.439195244466863 1.5714260169584906 11.004673552980607 0 0 0
309 1 0.0005033198738178722 3.142560797282679 9.43193424001368 0 0 0
310 1 1.5704834644742425 4.713464244852105 11.003878648782587 0 0 0
311 1 3.1425558974818544 3.140786695335125 9.430867649520241 0 0 0
312 1 4.711488762124848 4.709412410065432 11.00243041024136 0 0 0
313 1 6.28670246063198 3.137673731042951 9.429795368975425 0 0 0
314 1 7.858262160347491 4.705565211095095 11.002318251544432 0 0 0
315 1 9.433502370076276 3.138076362176578 9.429639779573193 0 0 0
316 1 11.007533701268752 4.702175618620841 11.003126195469822 0 0 0
317 1 12.581234377531748 3.1376440259849114 9.430047240528422 0 0 0
318 1 14.154052004208122 4.71175291095677 11.004604690089238 0 0 0
319 1 15.725348577320357 3.141694888341888 9.4319125773393 0 0 0
320 1 17.297395267005516 4.714069709794022 11.004496370550545 0 0 0
321 1 18.868090946182193 3.1428403652855543 9.432240167431198 0 0 0
322 1 20.439028556112103 4.7147114990988035 11.004461202833722 0 0 0
323 1 22.00923192226684 6.286520687319665 9.431483572501607 -1 0 0
324 1 1.5689893146486322 7.858436162791987 11.00384036826171 0 0 0
325 1 3.1383806771336333 6.2832555867285595 9.428839592939356 0 0 0
326 1 4.703248943627107 7.853288731693053 11.000761647260099 0 0 0
327 1 6.272764601556757 6.269078768846601 9.417002702705561 0 0 0
328 1 7.815642417800095 7.822227354439412 10.967018358765776 0 0 0
329 1 9.430316512505298 6.274609060832173 9.422511487978818 0 0 0
330 1 11.050251939501273 7.798498673636019 10.974337425672141 0 0 0
331 1 12.593305583498665 6.267075167060888 9.415928159632918 0 0 0
332 1 14.160941003741927 7.85418384208602 11.0029119998249 0 0 0
333 1 15.729490136471574 6.283587925716791 9.429838221790128 0 0 0
334 1 17.298801792223294 7.858868533416256 11.004838811680477 0 0 0
335 1 18.868999301886184 6.286695177316473 9.431863689809818 0 0 0
336 1 20.439056788070527 7.859475690858806 11.004499086964467 0 0 0
337 1 22.009174183867692 9.431811720855 9.431145143736554 -1 0 0
338 1 1.569363698047631 11.004369439938634 11.00386036772233 0 0 0
339 1 3.1363511418472334 9.429814189686745 9.427529900393623 0 0 0
340 1 4.702158001186764 11.00300398621017 11.001740993369177 0 0 0
341 1 6.263089861897168 9.413495744836093 9.404831449479365 0 0 0
342 1 7.743549287258445 10.97169050771283 10.953311393840142 0 0 0
343 1 9.38979296943469 9.398251313760799 9.350193853532414 0 0 0
344 1 11.144921170375161 11.031306422630452 10.719791292315396 0 0 0
345 1 12.632175176393888 9.388023178922166 9.379509840889353 0 0 0
346 1 14.155514802816654 11.003530340957997 10.99384032659708 0 0 0
347 1 15.736854559251432 9.429519835930863 9.426518652451133 0 0 0
348 1 17.298271293000035 11.004892773479291 11.004249063284707 0 0 0
349 1 18.870382670786505 9.43201784361873 9.431331856200798 0 0 0
350 1 20.43931040887148 11.004684137440021 11.004460773104055 0 0 0
351 1 0.00015929210530056474 12.577217304099909 9.431289399700885 0 0 0
352 1 1.5700109161699007 14.150174457807843 11.004307017373698 0 0 0
353 1 3.137317519265804 12.578060843204813 9.428333653852087 0 0 0
354 1 4.704916837400706 14.153995719669476 11.002623775325386 0 0 0
355 1 6.265637996235072 12.588577684069897 9.41243301184917 0 0 0
356 1 7.816268289657381 14.18963395295251 10.972374887128803 0 0 0
357 1 9.408713394620209 12.614193108400459 9.383794928327676 0 0 0
358 1 11.043062008552972 14.18378283109645 10.971587873676377 0 0 0
359 1 12.637077629675929 12.628684840567031 9.378721040560368 0 0 0
360 1 14.166149632697705 14.158778734424743 11.003791692658808 0 0 0
361 1 15.738133347187526 12.580337647277545 9.426691783027707 0 0 0
362 1 17.30034853929621 14.151153235734148 11.005106742901814 0 0 0
363 1 18.870982659211496 12.577470004750266 9.431346230081191 0 0 0
364 1 20.439897395798017 14.149858613851723 11.004651588407024 0 0 0
365 1 0.0006019111900433112 15.722472721679212 9.431820443893551 0 0 0
366 1 1.571179734445158 17.29548140019621 11.00418474469775 0 0 0
367 1 3.1396111410241905 15.724710874266806 9.429899394541643 0 0 0
368 1 4.712203808913041 17.299101221628774 11.003241254014133 0 0 0
369 1 6.273917609420523 15.737596449738215 9.419388994314414 0 0 0
370 1 7.858618628131247 17.304153028583404 11.003810162802528 0 0 0
371 1 9.432634365510243 15.729034379378552 9.429740535893266 0 0 0
372 1 11.009122638283447 17.302883562902686 11.003941694754982 0 0 0
373 1 12.593843130594202 15.742779780710109 9.41927195589592 0 0 0
374 1 14.156143292406256 17.299521548643597 11.004774575704895 0 0 0
375 1 15.731183101999704 15.727067110867631 9.429784300467597 0 0 0
376 1 17.298615554482083 17.29620877872296 11.004610054756638 0 0 0
377 1 18.870026829110355 15.722991274055424 9.431941870449519 0 0 0
378 1 20.439805415313995 17.294822029322802 11.00458083756233 0 0 0
379 1 0.0010446536482069937 18.866559800473382 9.43209838029948 0 0 0
380 1 1.57233793962428 20.43825514232596 11.004483698835125 0 0 0
381 1 3.143143680913652 18.86770124553611 9.43134370527158 0 0 0
382 1 4.715635747738527 20.43922071688564 11.00421666988832 0 0 0
383 1 6.287235839864691 18.87036002695333 9.430603720094386 0 0 0
384 1 7.861566050421361 20.43982619498153 11.004715509332163 0 0 0
385 1 9.43440953504536 18.868979699368808 9.431261779754378 0 0 0
386 1 11.007306769263925 20.439667642238803 11.004942852275203 0 0 0
387 1 12.581407647479573 18.87133493697623 9.430946106314599 0 0 0
388 1 14.153030615349705 20.43958547435586 11.004896689375194 0 0 0
389 1 15.726102490298155 18.868556416635457 9.431930374780435 0 0 0
390 1 17.29688234342208 20.438760332682108 11.004805152314548 0 0 0
391 1 18.868696769186588 18.86690969451587 9.432269510629043 0 0 0
392 1 20.43948400155891 20.43817004783484 11.004708537457274 0 0 0
393 1 0.001087727532721556 22.00952400400526 12.577005157371097 0 -1 0
394 1 1.572202688619067 1.5710414698634065 14.149501203118472 0 0 0
395 1 3.143918572428092 22.00941487946193 12.576985807128233 0 -1 0
396 1 4.715420435286367 1.5699479226230248 14.149946897792832 0 0 0
397 1 6.288354206031224 1.596674387003892e-05 12.577133123971425 0 0 0
398 1 7.86111625351064 1.5693026689778065 14.150300924713779 0 0 0
399 1 9.434392084232432 0.0002438162130711828 12.57756272234628 0 0 0
400 1 11.007208164212575 1.570626201899177 14.150160819878247 0 0 0
401 1 12.580204638095635 0.00037696706547821196 12.577574793540576 0 0 0
402 1 14.153064566525265 1.5707496715906046 14.15019727879028 0 0 0
403 1 15.724895106571136 0.0004986649500468742 12.577337661729958 0 0 0
404 1 17.296800399922347 1.5714935585805685 14.149639889927291 0 0 0
405 1 18.868101901261667 0.00024245190542050978 12.577131162055222 0 0 0
406 1 20.439409427286435 1.5715403139127457 14.149407737349861 0 0 0
407 1 0.0005819477579508619 3.1427343272156048 12.576931308812204 0 0 0
408 1 1.5707974023399787 4.713680531654775 14.149725938131521 0 0 0
409 1 3.142613042444905 3.1411165316865413 12.576829210725048 0 0 0
410 1 4.711710921032101 4.709528890253995 14.151226390085538 0 0 0
411 1 6.286212140490928 3.1381972654848163 12.57679399255473 0 0 0
412 1 7.857311896981745 4.703329018825462 14.152991013301579 0 0 0
413 1 9.433444559219444 3.1401186613493275 12.577930507224798 0 0 0
414 1 11.007743378076277 4.7096567986934375 14.15229096654076 0 0 0
415 1 12.58097316223902 3.140261044309605 12.578186548989697 0 0 0
416 1 14.155737487544496 4.7107243107223615 14.151749311921181 0 0 0
417 1 15.725389997634373 3.1421247627970352 12.577269997368843 0 0 0
418 1 17.297935447060656 4.714115985595346 14.149890508040388 0 0 0
419 1 18.868122462093137 3.1429896927047203 12.577082394179326 0 0 0
420 1 20.439387467786982 4.714835836906405 14.149472735900147 0 0 0
421 1 22.00939531327974 6.286557416265775 12.576854251200656 -1 0 0
422 1 1.569665288377246 7.858648421886312 14.149791339882624 0 0 0
423 1 3.139129443691568 6.283385148547859 12.576727186049892 0 0 0
424 1 4.703113211759742 7.852258571516135 14.154127651280325 0 0 0
425 1 6.2769515015353585 6.273072604017351 12.576659684548792 0 0 0
426 1 7.812280258412334 7.812102757306853 14.194457645054719 0 0 0
427 1 9.429543142802686 6.28302596848886 12.580474331818811 0 0 0
428 1 11.038256914251543 7.83927435101258 14.19247622175882 0 0 0
429 1 12.58491496749557 6.279809635068447 12.583070767639267 0 0 0
430 1 14.166942406760736 7.850906685837486 14.156253277015725 0 0 0
431 1 15.727993768684609 6.284620028951826 12.57727095092187 0 0 0
432 1 17.300269392279596 7.858792182145381 14.149965826619887 0 0 0
433 1 18.8688472818294 6.2866837751690925 12.577019937196155 0 0 0
434 1 20.439764506044305 7.859634256622136 14.149355708101787 0 0 0
435 1 0.00017247716022085967 9.432038895908102 12.576899272929857 0 0 0
436 1 1.573032514063774 11.004715853081164 14.148998420651033 0 0 0
437 1 3.1400134011485754 9.430232001299515 12.57745423863248 0 0 0
438 1 4.718734713518161 11.005298980812302 14.14725930879002 0 0 0
439 1 6.2776733135993075 9.413022594575443 12.584008336280862 0 0 0