LAMMPS data file via write_data, version 2 Aug 2023, timestep = 57, units = metal

693 atoms
3 atom types

0 22.009546999999998 xlo xhi
0 22.009546999999998 ylo yhi
0 22.009546999999998 zlo zhi

Masses

1 183.84
2 1.008
3 4.0026

Atoms # atomic

1 1 0.0009570007907965558 3.421978238439988e-05 22.008752330024922 0 0 -1
2 1 1.5713247567898532 1.5713691349025298 1.5700103403211074 0 0 0
3 1 3.1431522715060543 0.0009112215310556643 22.008034585552785 0 0 -1
4 1 4.714717250522165 1.5716573399999594 1.5689831214413172 0 0 0
5 1 6.287505355039229 0.0015509431201932524 22.007378490416276 0 0 -1
6 1 7.859770877443544 1.571893936537379 1.5686032618171686 0 0 0
7 1 9.432777678546021 0.0016818621211367583 22.007486349711087 0 0 -1
8 1 11.00552766052883 1.5718116071408328 1.5690228092229506 0 0 0
9 1 12.578411460149526 0.0013255376979002173 22.008127422379015 0 0 -1
10 1 14.15126988257182 1.571422326237907 1.5699091355926016 0 0 0
11 1 15.723813730535849 0.0006837759418461056 22.008863093040983 0 0 -1
12 1 17.29632586021086 1.5710038601027039 1.570748759010784 0 0 0
13 1 18.868313510220588 0.00010974699099443653 22.00931776815333 0 0 -1
14 1 20.43971409041339 1.5710642195546975 1.5709120248929405 0 0 0
15 1 0.0013650535108800928 3.142758470086275 3.5931675011303985e-05 0 0 0
16 1 1.571179132465778 4.715335407178367 1.5703376827169673 0 0 0
17 1 3.1422463672118006 3.142199043151817 22.008942996453154 0 0 -1
18 1 4.712913153272546 4.713835269479987 1.5687035434174648 0 0 0
19 1 6.286867457438332 3.1423946103162863 22.00806187533834 0 0 -1
20 1 7.858766460589887 4.7137385888161605 1.5678739294983919 0 0 0
21 1 9.43258529328374 3.1424788455973927 22.008168940439372 0 0 -1
22 1 11.005482002585948 4.713701532827216 1.568624994717407 0 0 0
23 1 12.578726686651827 3.1420790857385277 22.00918100753604 0 0 -1
24 1 14.152096791490315 4.713537108062546 1.5702509474031914 0 0 0
25 1 15.724843192489125 3.1414228492683978 0.0009644237467709125 0 0 0
26 1 17.29802768963716 4.713468199720565 1.5717667125381587 0 0 0
27 1 18.869978151681583 3.141309055634519 0.0016251188032247235 0 0 0
28 1 20.43996857280799 4.715143151370597 1.571587309966688 0 0 0
29 1 0.00136679209702841 6.287686564819925 0.0005155402307803115 0 0 0
30 1 1.5708524052784727 7.860692949462931 1.570660084367468 0 0 0
31 1 3.141909402846994 6.28737304229082 22.009308952892034 0 0 -1
32 1 4.712437520035795 7.8602434000159995 1.5690894543904677 0 0 0
33 1 6.2846232064763665 6.285708480883635 0.0006460594403801217 0 0 0
34 1 7.857047489022062 7.85926247133454 1.5674379545650223 0 0 0
35 1 9.4320041833889 6.285960425946555 22.009474930302716 0 0 -1
36 1 11.004994649387477 7.859266888485849 1.567797352922973 0 0 0
37 1 12.579224356946913 6.285577859864431 0.0017399859241260317 0 0 0
38 1 14.153245504702298 7.858983186432158 1.5709692226921093 0 0 0
39 1 15.72732897951796 6.28473294877664 0.004704418565362273 0 0 0
40 1 17.298005733952337 7.859874419847743 1.5726707751626972 0 0 0
41 1 18.870388531012658 6.286677324998488 0.0025110670861599347 0 0 0
42 1 20.439740975858378 7.860549515262526 1.5720475063394659 0 0 0
43 1 0.0010228283200318866 9.433367680149523 0.000663854657456664 0 0 0
44 1 1.5704314856108 11.006404423442445 1.5707283447203448 0 0 0
45 1 3.1414451863952433 9.433481458899742 22.009461188215074 0 0 -1
46 1 4.711813501666854 11.006987569188922 1.5692779490450928 0 0 0
47 1 6.284011342079228 9.433539594042337 0.0005431735019072499 0 0 0
48 1 7.85623986452631 11.007685811095268 1.56791724872637 0 0 0
49 1 9.430701106435514 9.433259008973218 0.0021895408485953136 0 0 0
50 1 11.004832718037532 11.008101939605675 1.5679936013448097 0 0 0
51 1 12.580468526945097 9.43283260802066 0.004306258171591579 0 0 0
52 1 14.15355291506669 11.007326298086507 1.5709970045125343 0 0 0
53 1 15.727576348095651 9.4328614467192 0.004602880422345579 0 0 0
54 1 17.2978476418356 11.00651710207132 1.5726980086864963 0 0 0
55 1 18.870185093447862 9.43311740479309 0.0025847340931376608 0 0 0
56 1 20.439378531007023 11.006223584806358 1.572059559164883 0 0 0
57 1 0.0006286529136879922 12.579041198965811 0.0003464942292576491 0 0 0
58 1 1.5701572212073367 14.151868628301179 1.5705145693253306 0 0 0
59 1 3.1409832707123777 12.579747516472283 22.0093153773437 0 0 -1
60 1 4.711510353428147 14.153562360097405 1.569081156689982 0 0 0
61 1 6.283500153860856 12.581129535903836 0.0004764209514361736 0 0 0
62 1 7.855886128834448 14.15632441718354 1.5675121366775184 0 0 0
63 1 9.430164448463785 12.583093687596211 0.003033293894588999 0 0 0
64 1 11.005018344936024 14.156382858840303 1.5682220898754164 0 0 0
65 1 12.58089311335 12.582823614963857 0.00485840691363705 0 0 0
66 1 14.153744889055412 14.155396991970242 1.5704654344990014 0 0 0
67 1 15.727481509331845 12.580675790711057 0.003539014669285498 0 0 0
68 1 17.297848321755303 14.152783828393115 1.571847031593143 0 0 0
69 1 18.869855649453203 12.579439533677968 0.001978118655548002 0 0 0
70 1 20.43918377310051 14.151540188005265 1.5716647085149957 0 0 0
71 1 0.00040890717020326004 15.724025352947475 22.00930544912671 0 0 -1
72 1 1.5702835471414387 17.296584372811196 1.5701625878949843 0 0 0
73 1 3.1408185299153923 15.725470103909016 22.00896767608112 0 0 -1
74 1 4.7117609791812 17.299544931677296 1.568708298990051 0 0 0
75 1 6.283084539073508 15.728944939245812 0.0006562547263029521 0 0 0
76 1 7.858027241384858 17.30039319686121 1.5680863688460394 0 0 0
77 1 9.431333499822188 15.72918580354413 1.587943294706767e-05 0 0 0
78 1 11.005305767548625 17.300252891820506 1.568578917321523 0 0 0
79 1 12.579696190560465 15.728820983938322 0.0010990946055642293 0 0 0
80 1 14.152296606696195 17.29950285546604 1.5697442344706385 0 0 0
81 1 15.727550700166459 15.728179398938563 0.002870728444204318 0 0 0
82 1 17.297823001871976 17.29829946433708 1.5708761860005216 0 0 0
83 1 18.869591126351462 15.724950244024031 0.0009887287033208923 0 0 0
84 1 20.43920704555743 17.29609137384177 1.5710297502596107 0 0 0
85 1 0.0004906296983107683 18.867882342026334 22.008879230803817 0 0 -1
86 1 1.5710470245486552 20.439568858591333 1.5699297568547959 0 0 0
87 1 3.141538136728396 18.86971937617097 22.00844297824187 0 0 -1
88 1 4.714384877187719 20.44068637425433 1.5690104901132995 0 0 0
89 1 6.286208392195169 18.870807540948732 22.00784200707069 0 0 -1
90 1 7.859555861895246 20.44117391167092 1.5686266481631765 0 0 0
91 1 9.432326610220953 18.87095757177668 22.007844861027852 0 0 -1
92 1 11.005439306240067 20.44103421064687 1.568976281898869 0 0 0
93 1 12.578766374706401 18.870615344942863 22.00850255547334 0 0 -1
94 1 14.151226046997824 20.440504310363327 1.5697356598835397 0 0 0
95 1 15.724743996736501 18.86999730284639 22.009338998448094 0 0 -1
96 1 17.296137362579202 20.4397839229794 1.5704322027244069 0 0 0
97 1 18.86904117502324 18.868893963218518 5.45442315192739e-05 0 0 0
98 1 20.43919760019812 20.43909011874634 1.5706013095107614 0 0 0
99 1 0.0003018460387426999 0.0001672824640353595 3.1416107165784704 0 0 0
100 1 1.570594336780926 1.5706590276531351 4.712034357435629 0 0 0
101 1 3.14241190654893 0.0009537039540695071 3.140489047556224 0 0 0
102 1 4.71357697094211 1.5706564579478952 4.710656835990403 0 0 0
103 1 6.286840184680638 0.0015511578766846546 3.1397607104534386 0 0 0
104 1 7.859195938599513 1.5709075731412263 4.710201039019593 0 0 0
105 1 9.4324594477947 0.0016797297934360007 3.1396785734830446 0 0 0
106 1 11.00553413235173 1.5709070372208895 4.71040376833175 0 0 0
107 1 12.578374685409191 0.0013635976283355522 3.1402733831045024 0 0 0
108 1 14.151605051569033 1.570550289293927 4.711333967199931 0 0 0
109 1 15.723719886834807 0.0008085566398628447 3.1411258467934764 0 0 0
110 1 17.296825884902937 1.5701913784493886 4.712075336184462 0 0 0
111 1 18.8678566910828 0.00030217119344535485 3.141634734894838 0 0 0
112 1 20.43960014474434 1.5704253121924232 4.712700961044376 0 0 0
113 1 0.0004043889440528715 3.1430439194008577 3.141527132232641 0 0 0
114 1 1.5697789546847198 4.714574766087697 4.711600012168511 0 0 0
115 1 3.1411962438390493 3.1419842186198177 3.139423820514228 0 0 0
116 1 4.709468672468913 4.710690465890408 4.705933314232486 0 0 0
117 1 6.285934562749535 3.1417443007326638 3.138345109466637 0 0 0
118 1 7.856996558340281 4.710541973641928 4.705256563140582 0 0 0
119 1 9.432190231223132 3.141840647479191 3.138346079387004 0 0 0
120 1 11.005447411305315 4.711023355220131 4.705965322813521 0 0 0
121 1 12.57872058860495 3.141792807899453 3.139208321362507 0 0 0
122 1 14.153059934163137 4.711177699863032 4.707700104852804 0 0 0
123 1 15.724646425587288 3.141634754929322 3.140423138759098 0 0 0
124 1 17.2994862208329 4.7116774163074115 4.709233742600653 0 0 0
125 1 18.869071787109966 3.141946384158185 3.1412979906689285 0 0 0
126 1 20.439733406135467 4.7147375766374795 4.712751266256805 0 0 0
127 1 0.00015092915350003655 6.2880427876711025 3.1419960076941185 0 0 0
128 1 1.5695298538024578 7.860599204198632 4.712155747996517 0 0 0
129 1 3.1408203172618134 6.287400242993492 3.1397366831270475 0 0 0
130 1 4.709863717929454 7.8595910526273 4.707433457437678 0 0 0
131 1 6.283142815296835 6.284867156604628 3.135077238547588 0 0 0
132 1 7.852687415466091 7.855623578654798 4.696855369736529 0 0 0
133 1 9.430871807633938 6.284780524098237 3.1347189214434845 0 0 0
134 1 11.003400334105201 7.856462452677177 4.698406986911304 0 0 0
135 1 12.578958960459573 6.285251117927865 3.136715126775861 0 0 0
136 1 14.154677230385932 7.856478780784304 4.702438703594332 0 0 0
137 1 15.726282101091712 6.285311215097495 3.1391686883428846 0 0 0
138 1 17.297790470462004 7.859890524728451 4.711618484876384 0 0 0
139 1 18.868822514354925 6.28744536510806 3.142250060388134 0 0 0
140 1 20.438906305855404 7.860603025172259 4.7135536795455595 0 0 0
141 1 22.009246645148313 9.433487221770289 3.1422885713879745 -1 0 0
142 1 1.568982788488807 11.006359835130652 4.712417083351271 0 0 0
143 1 3.140376661264245 9.433567915306922 3.14010938338548 0 0 0
144 1 4.70917674821959 11.007221090718991 4.708056968022245 0 0 0
145 1 6.282684977537109 9.433551843194262 3.1364079477589977 0 0 0
146 1 7.852249913515206 11.00837196717987 4.701085469816111 0 0 0
147 1 9.429092459274438 9.433143999120016 3.131995439889437 0 0 0
148 1 11.002117046109122 11.010083660377262 4.691014320373089 0 0 0
149 1 12.579219265243879 9.433088931346632 3.133602244792404 0 0 0
150 1 14.154021847821372 11.008034383815216 4.70491409345749 0 0 0
151 1 15.725637704491353 9.433182241548936 3.1406813051171194 0 0 0
152 1 17.29713010931627 11.006301879304388 4.712468296756012 0 0 0
153 1 18.868306173464383 9.433346475325441 3.142829300600852 0 0 0
154 1 20.438320035965372 11.00603333069817 4.713940736058634 0 0 0
155 1 22.00890506694309 12.578866322381295 3.1423244033305866 -1 0 0
156 1 1.5686087762590681 14.15189350510223 4.712584461944459 0 0 0
157 1 3.139887921732339 12.57975623548568 3.140212128720509 0 0 0
158 1 4.708297585500161 14.154796118602293 4.707904717860241 0 0 0
159 1 6.2820081484680745 12.58141800460661 3.136441575839876 0 0 0
160 1 7.8498214103041475 14.16219254922968 4.696237158592069 0 0 0
161 1 9.428344501063078 12.583872765214592 3.1313400412757084 0 0 0
162 1 11.00407306334751 14.160674744683218 4.699165910865493 0 0 0
163 1 12.57964600680616 12.58305216586774 3.1341329607192803 0 0 0
164 1 14.156153237757547 14.159024212677451 4.702294564052666 0 0 0
165 1 15.725976628592784 12.580564459269167 3.1404008656695694 0 0 0
166 1 17.298006817398086 14.15278708783753 4.711952949264678 0 0 0
167 1 18.868147207780886 12.579035346155408 3.1428345329866367 0 0 0
168 1 20.43835934592308 14.151203230306269 4.714001790413634 0 0 0
169 1 22.00890866296016 15.72379256224 3.142074522887624 -1 0 0
170 1 1.5686829484305422 17.297177301895612 4.712260402870809 0 0 0
171 1 3.139699466921571 15.725603860108656 3.1399686134972353 0 0 0
172 1 4.707972498868889 17.302801519190584 4.707005051703532 0 0 0
173 1 6.281396519841864 15.730056335078084 3.13518662810061 0 0 0
174 1 7.855871716384711 17.303851159515936 4.706467456795214 0 0 0
175 1 9.430275087670497 15.730397703629151 3.1354069764980856 0 0 0
176 1 11.004966341511347 17.30302740189067 4.707090187123169 0 0 0
177 1 12.579278431595183 15.729515446878754 3.136922005049325 0 0 0
178 1 14.153184656771181 17.301847925639184 4.708653073186543 0 0 0
179 1 15.726744283721574 15.727990002307239 3.1389136621189144 0 0 0
180 1 17.2992588025615 17.299903819692094 4.710333121269545 0 0 0
181 1 18.868424908085288 15.724433269421148 3.142151414983038 0 0 0
182 1 20.438905648896675 17.296204190305325 4.71338713793084 0 0 0
183 1 22.00925855753856 18.86784401057098 3.14164749729724 -1 0 0
184 1 1.5703290076960201 20.43943453671372 4.712781926981216 0 0 0
185 1 3.1405143022794952 18.87007809725291 3.1398767733874706 0 0 0
186 1 4.713097103424046 20.441519913026397 4.711142129671684 0 0 0
187 1 6.285247514875017 18.87149922630315 3.138764394457358 0 0 0
188 1 7.858820339481979 20.442115937923568 4.7106121355464925 0 0 0
189 1 9.431789683882315 18.871642136442205 3.1387385208381366 0 0 0
190 1 11.005283878510877 20.441782553077328 4.710815406297109 0 0 0
191 1 12.578586550286765 18.871073558246017 3.1394948474111257 0 0 0
192 1 14.151420700163081 20.441019187413616 4.711750078564174 0 0 0
193 1 15.724546357143101 18.8701140545998 3.1405427294489985 0 0 0
194 1 17.2965066170132 20.440073592604623 4.712564281357968 0 0 0
195 1 18.86849460009267 18.86879288064468 3.141472281149928 0 0 0
196 1 20.4388882111946 20.438783092542188 4.71345817796126 0 0 0
197 1 0.00017086307944874367 22.009370500237043 6.285333184781141 0 -1 0
198 1 1.5710124051252514 1.5704339939591012 7.8567443333189555 0 0 0
199 1 3.1417697940607296 0.0002860620126361691 6.28399395989968 0 0 0
200 1 4.713059028998588 1.5688359187834116 7.854804079187895 0 0 0
201 1 6.286292338917875 0.0014921690381445676 6.2831139646185425 0 0 0
202 1 7.859633366027282 1.5695872105050481 7.854708700637976 0 0 0
203 1 9.432327491202155 0.0015910070234967906 6.282781601363968 0 0 0
204 1 11.005899035475503 1.5692644136721705 7.854423675190969 0 0 0
205 1 12.578529190860893 0.0010460513248876212 6.283295794975457 0 0 0
206 1 14.152042754863063 1.5684800402719428 7.855408683557097 0 0 0
207 1 15.724180217326332 0.00022577980375635464 6.284181398588213 0 0 0
208 1 17.297963165083875 1.567906974067006 7.85577659813922 0 0 0
209 1 18.86819740234248 22.008903732697767 6.284889775830468 0 -1 0
210 1 20.439818505706388 1.56995316321318 7.857106872974964 0 0 0
211 1 0.00039029722229663987 3.1416654183000445 6.283886681399069 0 0 0
212 1 1.5687553786008985 4.71264374144809 7.854672336305226 0 0 0
213 1 3.139256698091596 3.1395242130471295 6.280860217639098 0 0 0
214 1 4.703470268951317 4.703746407746465 7.845007324985479 0 0 0
215 1 6.284267663455828 3.1383441881824496 6.2793863291509595 0 0 0
216 1 7.855249658673117 4.70295535554373 7.845315832624306 0 0 0
217 1 9.431923878298115 3.138651526991823 6.2792137979232026 0 0 0
218 1 11.006427290150144 4.703680432108256 7.8455334832109065 0 0 0
219 1 12.57948376561046 3.1387271222198954 6.280003869525394 0 0 0
220 1 14.157430755864446 4.7025007026881775 7.846602950585283 0 0 0
221 1 15.726627711582374 3.1382227683091437 6.2809251313276055 0 0 0
222 1 17.307053159780637 4.7038600367852785 7.847168993967787 0 0 0
223 1 18.871054031124938 3.1393930624472532 6.282104841087792 0 0 0
224 1 20.44194035673521 4.712484936262841 7.8553313623499985 0 0 0
225 1 22.009265353857074 6.287376682043106 6.2842945336683105 -1 0 0
226 1 1.5684063947965903 7.8598750006701 7.855412354229654 0 0 0
227 1 3.1377755259676356 6.285616222702655 6.280465260702537 0 0 0
228 1 4.7038975767372015 7.857254492842651 7.847640386704832 0 0 0
229 1 6.273934060456469 6.275493286702397 6.265790149731566 0 0 0
230 1 7.831279378492218 7.832770059674757 7.8102808244524 0 0 0
231 1 9.428669679083459 6.277038193916325 6.267654205094269 0 0 0
232 1 11.000483671076106 7.843460755761726 7.822163499867216 0 0 0
233 1 12.580519974067492 6.2790717314182665 6.270576011852627 0 0 0
234 1 14.167648682564199 7.839940293941569 7.8259934050356685 0 0 0
235 1 15.73215753184345 6.278724189585054 6.272271091036913 0 0 0
236 1 17.301726669314075 7.858442471472208 7.852777626613712 0 0 0
237 1 18.870419543724918 6.2862626569708215 6.283109140844381 0 0 0
238 1 20.439962602493356 7.85986305628281 7.85669006569935 0 0 0
239 1 22.00850377649142 9.433289031403087 6.284903521835781 -1 0 0
240 1 1.5681841709370277 11.00606393557091 7.856041775910228 0 0 0
241 1 3.1383080177154556 9.433595799817038 6.281560820927401 0 0 0
242 1 4.706450643107403 11.008074005548723 7.8503010734204555 0 0 0
243 1 6.277723904526563 9.433655590333533 6.273030360302054 0 0 0
244 1 7.848078052257411 11.010147542964123 7.838163148746142 0 0 0
245 1 9.421490677498007 9.427802933803576 6.255013337176911 0 0 0
246 1 10.99110778584894 11.020031164016904 7.786664956983421 0 0 0
247 1 12.58039406269476 9.429905565253481 6.254438377140777 0 0 0
248 1 14.153333220109783 11.008972207742884 7.844323337667456 0 0 0
249 1 15.726199284491104 9.433024116815734 6.279471283301451 0 0 0
250 1 17.297502731091196 11.005929223476459 7.855589631885924 0 0 0
251 1 18.868234900197464 9.433213775255426 6.284595544198906 0 0 0
252 1 20.43827774460984 11.005458662853906 7.857575263122174 0 0 0
253 1 22.007968458296208 12.57854788444808 6.285343052635062 -1 0 0
254 1 1.5670720733719097 14.151732022273016 7.856759363281966 0 0 0
255 1 3.1373813487573874 12.57998549943052 6.282074002120068 0 0 0
256 1 4.700408543745696 14.158662208451485 7.849554676692184 0 0 0
257 1 6.275830806591337 12.583125891408695 6.273413401752041 0 0 0
258 1 7.817184190970125 14.19593136827149 7.810351223091695 0 0 0
259 1 9.417454199362279 12.595902556016277 6.250538961973725 0 0 0
260 1 11.005405657748137 14.174975924957492 7.825714512861527 0 0 0
261 1 12.584456551971355 12.591026127484744 6.257471445192998 0 0 0
262 1 14.178834613153281 14.183460868749762 7.824823306303485 0 0 0
263 1 15.727841582182267 12.580849504247706 6.279818300238143 0 0 0
264 1 17.302127624611412 14.154114175853676 7.854794492393501 0 0 0
265 1 18.868094044867252 12.578546149326192 6.285252341366693 0 0 0
266 1 20.43854486047089 14.150569813574657 7.8581567239751715 0 0 0
267 1 22.00804815459369 15.723797979853659 6.285362957045075 -1 0 0
268 1 1.5682692353190841 17.297136567999093 7.856791427563988 0 0 0
269 1 3.1359619303369732 15.727452091962826 6.281584872357578 0 0 0
270 1 4.706409359108145 17.304272296780223 7.851657889216762 0 0 0
271 1 6.269824771705217 15.741527937893663 6.267129781460236 0 0 0
272 1 7.852119311848848 17.312144930430946 7.848472542456343 0 0 0
273 1 9.42743778588438 15.738874439496689 6.270281351818681 0 0 0
274 1 11.004591600461357 17.30832214449821 7.848700579727815 0 0 0
275 1 12.581269804564267 15.736552966718477 6.272445758859186 0 0 0
276 1 14.156032998249756 17.308225300373785 7.850465773136594 0 0 0
277 1 15.733898691593303 15.735459331708608 6.273906457789874 0 0 0
278 1 17.29973882921587 17.300082980013105 7.854792344224872 0 0 0
279 1 18.869720504644338 15.724973580076641 6.284421599312733 0 0 0
280 1 20.43884106040797 17.295870398514214 7.857685317182825 0 0 0
281 1 22.008861850186783 18.86773211201267 6.2853657309694775 -1 0 0
282 1 1.5705600504478041 20.439108671971237 7.85740611557071 0 0 0
283 1 3.1395513231107017 18.870481089461506 6.2832447003629 0 0 0
284 1 4.713049074683838 20.441367556252427 7.856077679919084 0 0 0
285 1 6.283009693953702 18.874910252469235 6.280676584991956 0 0 0
286 1 7.858683208905479 20.443612338462497 7.8553573548214155 0 0 0
287 1 9.431044978552451 18.87457071802293 6.280549249438635 0 0 0
288 1 11.005223171571663 20.442834591260862 7.855176512681159 0 0 0
289 1 12.578793888767725 18.873428319608063 6.2814328674953135 0 0 0
290 1 14.151465602767496 20.44175693690598 7.856274103800867 0 0 0
291 1 15.725870532765782 18.87225062294544 6.282525560185172 0 0 0
292 1 17.296550288790964 20.43937633277885 7.8571338753137105 0 0 0
293 1 18.8685131568086 18.868532878626066 6.284813995254099 0 0 0
294 1 20.43881756803836 20.438295330675338 7.857842674941275 0 0 0
295 1 0.0006035761112955536 22.009098175421173 9.43001524805505 0 -1 0
296 1 1.5718859091336814 1.5703906059608843 11.002112685935112 0 0 0
297 1 3.1424617973290276 0.00024433810708991515 9.429402497006999 0 0 0
298 1 4.714210171761148 1.5698101865642504 11.001473443620197 0 0 0
299 1 6.286971874024566 0.0008572009530435411 9.429065947856671 0 0 0
300 1 7.860763581267674 1.5701682616705703 11.00200164631245 0 0 0
301 1 9.433183112581105 0.002031720161534676 9.42915490514378 0 0 0
302 1 11.00646793364641 1.5725296283435937 11.00313999789706 0 0 0
303 1 12.57818195200342 0.0010481400272166974 9.429574550711699 0 0 0
304 1 14.152127966501801 1.5685025826907772 11.003105002824718 0 0 0
305 1 15.724234168733554 22.008762111652842 9.42976010722018 0 -1 0
306 1 17.298433394683148 1.567799416700678 11.002328241269577 0 0 0
307 1 18.86838579393755 22.00844819154871 9.429937937390676 0 -1 0
308 1 20.44046942156426 1.569556206173165 11.002411038327189 0 0 0
309 1 0.0012072513857612189 3.1413233217343017 9.429245189479126 0 0 0
310 1 1.570785552572077 4.71256490674064 11.001405725120243 0 0 0
311 1 3.1410556082935988 3.140185812366208 9.427900411808254 0 0 0
312 1 4.709567320913871 4.708234771902465 10.999103694555531 0 0 0
313 1 6.284074155588634 3.1349023195882024 9.424982645191383 0 0 0
314 1 7.857167077603082 4.699940797322856 10.996301194669776 0 0 0
315 1 9.434361552479311 3.1374243792353087 9.425986047272676 0 0 0
316 1 11.009550798384856 4.710617533113478 11.004439798925889 0 0 0
317 1 12.579530849487545 3.1359340208095117 9.426585455389953 0 0 0
318 1 14.159026768247749 4.69767875231185 11.000086135982011 0 0 0
319 1 15.728432928549205 3.1337306481686533 9.426478283282622 0 0 0
320 1 17.30518368742477 4.705616940541699 11.000648276362675 0 0 0
321 1 18.871109483443977 3.139076568395032 9.42855415953141 0 0 0
322 1 20.442776729414618 4.711713983718233 11.001958397584646 0 0 0
323 1 0.0009691436938718784 6.2860223117127285 9.428821455983236 0 0 0
324 1 1.569456146652125 7.859029529416648 11.001745812647044 0 0 0
325 1 3.1346023918683077 6.282758654924818 9.424582772386058 0 0 0
326 1 4.698546096137183 7.852976990832482 10.99538799997744 0 0 0
327 1 6.256243524200512 6.255623425464221 9.395995789012579 0 0 0
328 1 7.785654506720045 7.778490223892898 10.90386728584392 0 0 0
329 1 9.433947689375536 6.262770945256593 9.406306207814882 0 0 0
330 1 11.012468955037923 7.81363678632282 10.964469487872552 0 0 0
331 1 12.586943622420463 6.258520313078602 9.406468527680524 0 0 0
332 1 14.231928770115351 7.779053216306176 10.91925031289289 0 0 0
333 1 15.755021327322881 6.255680146346649 9.40075147200221 0 0 0
334 1 17.315760595020897 7.850545492250215 10.998841410532371 0 0 0
335 1 18.87689113526352 6.281980169298699 9.426103643349606 0 0 0
336 1 20.443500871829354 7.858275800286784 11.002650264685359 0 0 0
337 1 22.009263305988732 9.432614987170458 9.429503834257666 -1 0 0
338 1 1.5701266898428279 11.004779140832339 11.002355387493129 0 0 0
339 1 3.1371157023534026 9.432960995274765 9.426169644482133 0 0 0
340 1 4.708637321462918 11.004474019996374 11.001260766027633 0 0 0
341 1 6.269429958488575 9.434244739086171 9.415786357801771 0 0 0
342 1 7.838571988632949 11.026314010384048 10.963091271595577 0 0 0
343 1 9.36580025847327 9.360302837805136 9.35526234386102 0 0 0
344 1 10.939904200527863 11.151473236248494 10.429513163273208 0 0 0
345 1 12.619898642347248 9.380024077555763 9.341223625956593 0 0 0
346 1 14.155116671050845 11.008697453559732 10.982836347320786 0 0 0
347 1 15.730290909028806 9.434268753241623 9.425391776118975 0 0 0
348 1 17.29884654889118 11.000502923019544 11.005186953239093 0 0 0
349 1 18.87041145665624 9.43201768996388 9.428980114252708 0 0 0
350 1 20.43954796962636 11.003942758139514 11.003337587596391 0 0 0
351 1 22.008237821055065 12.577496644925509 9.43038433680491 -1 0 0
352 1 1.5681010964986508 14.15111361897513 11.002484504392127 0 0 0
353 1 3.1363507215547237 12.579021495397475 9.428046891714557 0 0 0
354 1 4.701471157934871 14.156997194241132 11.00034896076223 0 0 0
355 1 6.26463546705079 12.589694453397732 9.418280407785351 0 0 0
356 1 7.813303015925434 14.198193912491494 10.972847605204446 0 0 0
357 1 9.329859955825665 12.701370759836713 9.331227804122289 0 0 0
358 1 11.012921555094092 14.17150539603216 10.962346458978779 0 0 0
359 1 12.65527008913572 12.665633937751865 9.352945026376037 0 0 0
360 1 14.180652762091478 14.18382576024169 10.986563564898647 0 0 0
361 1 15.734678277382988 12.581815952253585 9.427764710278787 0 0 0
362 1 17.303058526863122 14.152891163046379 11.002983833563167 0 0 0
363 1 18.86885818648998 12.576891869879706 9.430927668190579 0 0 0
364 1 20.43937390310688 14.150002953060556 11.003219691537586 0 0 0
365 1 22.008240394198683 15.723383759275414 9.430223277261343 -1 0 0
366 1 1.569185888982222 17.296767348671928 11.002225912949267 0 0 0
367 1 3.1357876070545574 15.727243595017656 9.427893565994204 0 0 0
368 1 4.708941362390752 17.301823837432654 11.001074669359376 0 0 0
369 1 6.267552454019594 15.744232618492102 9.41616771008374 0 0 0
370 1 7.8549398950772575 17.30814333621868 11.001471313730573 0 0 0
371 1 9.423450921138086 15.752693509334877 9.414352390031782 0 0 0
372 1 11.003300874915203 17.303245700025652 11.000295221469745 0 0 0
373 1 12.58530431903116 15.750748143820546 9.415959645509286 0 0 0
374 1 14.154573934823468 17.305866584824447 11.001344515927103 0 0 0
375 1 15.73481862762419 15.735924897136806 9.42209973947955 0 0 0
376 1 17.29899977469784 17.298600094112064 11.002006994092042 0 0 0
377 1 18.87001449205184 15.724460545226616 9.429775836984474 0 0 0
378 1 20.439191384169444 17.295611705558496 11.002610664935142 0 0 0
379 1 22.009171874680842 18.867369187808478 9.43012379207882 -1 0 0
380 1 1.571178632608347 20.438871829812467 11.002393442236652 0 0 0
381 1 3.1404733932130307 18.869725470335382 9.429183047859565 0 0 0
382 1 4.713726998143169 20.44089962629676 11.001972748272046 0 0 0
383 1 6.283763666432824 18.874621553172194 9.427975531749139 0 0 0
384 1 7.859762158965728 20.44229300419842 11.002464650743253 0 0 0
385 1 9.431356685252759 18.876412445251354 9.427164041672004 0 0 0
386 1 11.00514855814735 20.441932218035582 11.002648265851287 0 0 0
387 1 12.578033041912333 18.874982908202316 9.428096325772662 0 0 0
388 1 14.151305214938404 20.44104231719078 11.002748399380216 0 0 0
389 1 15.7253555754222 18.871612296628165 9.42891125039518 0 0 0
390 1 17.29679254014488 20.43876924860587 11.002558957130768 0 0 0
391 1 18.86826471764803 18.867778208321354 9.429985020830873 0 0 0
392 1 20.43923443110964 20.43796931970545 11.002651105046308 0 0 0
393 1 0.0012443594666961461 22.00891197936353 12.57503207302927 0 -1 0
394 1 1.5725349772548756 1.5703594133612524 14.147605931359829 0 0 0
395 1 3.1431316944357297 0.0002624409495123821 12.574770686424428 0 0 0
396 1 4.714808540039165 1.5701523030879139 14.14750931842924 0 0 0
397 1 6.287267104574534 0.0012044367524608782 12.5746517269638 0 0 0
398 1 7.860946978259731 1.570994367663029 14.146921141004784 0 0 0
399 1 9.43357619446148 0.0025903421077621133 12.57494803744432 0 0 0
400 1 11.006439662328292 1.5747655886417038 14.146884184690412 0 0 0
401 1 12.578418322103074 0.0020176562298349146 12.575414452179519 0 0 0
402 1 14.15258837508147 1.5680835100247161 14.148641150240262 0 0 0
403 1 15.725014430962055 22.008517528546278 12.57550913287038 0 -1 0
404 1 17.2992135564044 1.5671521043269017 14.14905977655056 0 0 0
405 1 18.86901726523666 22.00809465914003 12.57532313562751 0 -1 0
406 1 20.441207573457458 1.5692437189226764 14.148148028973074 0 0 0
407 1 0.002254306612555653 3.140991604369568 12.575100620493426 0 0 0
408 1 1.5718116956065122 4.712547613034626 14.148223613636324 0 0 0
409 1 3.1422282890491435 3.1405863954140925 12.574560029226435 0 0 0
410 1 4.710427644278622 4.709135743049493 14.14880967807702 0 0 0
411 1 6.284917773323985 3.1384597061923767 12.574051371482511 0 0 0
412 1 7.856784334519546 4.703295265269532 14.14962653481402 0 0 0
413 1 9.433894010641879 3.1463634766456776 12.575091823027963 0 0 0
414 1 11.007876076989819 4.722682898785078 14.144710458417942 0 0 0
415 1 12.581122410509836 3.1447506594936625 12.576866729286792 0 0 0
416 1 14.161680987789605 4.6960248529853885 14.155875328909316 0 0 0
417 1 15.730211637851108 3.134797702140946 12.57633049166819 0 0 0
418 1 17.307571556170902 4.703969439566416 14.152658120005405 0 0 0
419 1 18.872258651993672 3.138427788114784 12.575635151955654 0 0 0
420 1 20.444277605382734 4.71111600739732 14.14933630918014 0 0 0
421 1 0.002793246364911374 6.2849977170790226 12.575237457462428 0 0 0
422 1 1.570629741338357 7.858777673703272 14.148114609092257 0 0 0
423 1 3.138458063176556 6.282731269483743 12.574166753775511 0 0 0
424 1 4.698661868062046 7.853513859296759 14.151770506510756 0 0 0
425 1 6.274726150833874 6.274166528330971 12.57258203061672 0 0 0
426 1 7.783915025026736 7.791371321347869 14.231773077855275 0 0 0
427 1 9.423883806805792 6.306104406835171 12.571961167222112 0 0 0
428 1 11.002886283544584 7.860807517388056 14.181545597117271 0 0 0
429 1 12.60184460092595 6.30299103776572 12.582221778702998 0 0 0
430 1 14.254258828491073 7.764266983164652 14.25839088841894 0 0 0
431 1 15.746505163678913 6.267468812368077 12.577829687095104 0 0 0
432 1 17.323015097115665 7.847289547563724 14.160024513783238 0 0 0
433 1 18.87792774815899 6.280433598829624 12.576400131358664 0 0 0
434 1 20.446527278253818 7.857483138981556 14.149968055484065 0 0 0
435 1 0.002320146685360214 9.432078406600793 12.575555563245562 0 0 0
436 1 1.5719642018678988 11.004638857076847 14.147746430893045 0 0 0
437 1 3.1422257718998887 9.431458741834604 12.574571388810499 0 0 0
438 1 4.713124458456406 11.00358807534526 14.147532731448887 0 0 0
439 1 6.28929424880639 9.41821102925859 12.572840260807311 0 0 0