LAMMPS data file via write_data, version 2 Aug 2023, timestep = 30, units = metal

691 atoms
3 atom types

0 22.009546999999998 xlo xhi
0 22.009546999999998 ylo yhi
0 22.009546999999998 zlo zhi

Masses

1 183.84
2 1.008
3 4.0026

Atoms # atomic

1 1 0.0005799713924852754 22.009453912172823 0.001062508570943662 0 -1 0
2 1 1.5724308830988254 1.5708847414717535 1.5724880571024582 0 0 0
3 1 3.1437376619754076 0.0001451538751544633 0.0020617549650149896 0 0 0
4 1 4.716352246353904 1.5707110827582755 1.572998617829583 0 0 0
5 1 6.288464889118177 0.00010529943388593011 0.0025884765828609844 0 0 0
6 1 7.861382331485706 1.5704086362258103 1.5731122878678983 0 0 0
7 1 9.43385754389954 22.00938783899651 0.0024690459394753617 0 -1 0
8 1 11.006757833212475 1.570084236556443 1.5727694318826688 0 0 0
9 1 12.579213422896142 22.009092046394848 0.0018707319187103925 0 -1 0
10 1 14.151950092250258 1.5699306415348782 1.5722168550598674 0 0 0
11 1 15.723985703506697 22.008959998996744 0.0011380152077106035 0 -1 0
12 1 17.29651169183963 1.5701080249763166 1.571790346648672 0 0 0
13 1 18.867757161429004 22.009097414125424 0.0007429181930316165 0 -1 0
14 1 20.43973736501465 1.5707165676849522 1.5718937824299406 0 0 0
15 1 0.0011384927159052653 3.1429449553313042 0.0003861270577594713 0 0 0
16 1 1.5726966334680352 4.714648271079407 1.5716615152722269 0 0 0
17 1 3.1434184830214136 3.142285590678174 0.001417948530661882 0 0 0
18 1 4.7154641728662705 4.7134203182372705 1.5715593469312243 0 0 0
19 1 6.2882168957442515 3.141922970452155 0.0018387369142057464 0 0 0
20 1 7.86102794317028 4.712891233445238 1.571593271800058 0 0 0
21 1 9.433915103169957 3.141585595836068 0.0016259089979465116 0 0 0
22 1 11.00717179506321 4.712466623344352 1.5710655392423538 0 0 0
23 1 12.57969378463442 3.141388226149503 0.001015276394650553 0 0 0
24 1 14.153167850333652 4.712368739085428 1.5703309102281306 0 0 0
25 1 15.72490872180257 3.141467277287404 0.0003578328113789992 0 0 0
26 1 17.29832420816807 4.712781955662611 1.5699274819467663 0 0 0
27 1 18.86877347044289 3.142089558636546 22.00949286373171 0 0 -1
28 1 20.440490074215475 4.714442740348232 1.570988619819016 0 0 0
29 1 0.0015596734168079902 6.287271909846156 22.00933624868556 0 0 -1
30 1 1.5729122861047733 7.859451348721896 1.5713230431902343 0 0 0
31 1 3.143618615493955 6.28679521920128 0.0006581901926632418 0 0 0
32 1 4.71550942517305 7.858702385079465 1.5708537509292388 0 0 0
33 1 6.287414500768749 6.2854401235181925 0.0015953617094088609 0 0 0
34 1 7.860641329757111 7.85757689250585 1.569326344488745 0 0 0
35 1 9.433801538700976 6.284797514614152 0.0011957410011441676 0 0 0
36 1 11.007560102501971 7.8568778071936105 1.5685040963046748 0 0 0
37 1 12.580472244028963 6.284738233807064 0.0002636922804109054 0 0 0
38 1 14.154536842244736 7.856965535565514 1.5674737311377727 0 0 0
39 1 15.726360945935205 6.285053539970553 22.00894635140638 0 0 -1
40 1 17.298816673255576 7.858248396975326 1.5690278223456757 0 0 0
41 1 18.869284710417553 6.28660414666593 22.008669516098198 0 0 -1
42 1 20.44081137407701 7.859286409678447 1.5705465523560536 0 0 0
43 1 0.0015894842074666911 9.432141531494349 22.0093237030026 0 0 -1
44 1 1.5728765870745887 11.004607993979397 1.5716293649506958 0 0 0
45 1 3.14369360642702 9.431976781538014 0.0006767228345375836 0 0 0
46 1 4.715598114139779 11.004495888856788 1.5714455941677299 0 0 0
47 1 6.287534238867122 9.431542913600982 0.0009157079991723665 0 0 0
48 1 7.860594934862341 11.004067227809456 1.5694245608504236 0 0 0
49 1 9.43402326293571 9.43119438913676 22.00939803271161 0 0 -1
50 1 11.00772664573424 11.003851912833118 1.5668678939621277 0 0 0
51 1 12.580717911777935 9.431021552213634 22.008509584318414 0 0 -1
52 1 14.154564706519594 11.004015384060393 1.5676597485777 0 0 0
53 1 15.726411222235097 9.431231928236645 22.008167044671758 0 0 -1
54 1 17.29857793495874 11.004316949834807 1.5692240891702005 0 0 0
55 1 18.869282053593423 9.431864021085877 22.00845450147517 0 0 -1
56 1 20.440650648988075 11.0045245080491 1.5707440596869626 0 0 0
57 1 0.0012874440404616262 12.577179559650082 0.00027189351273565075 0 0 0
58 1 1.5725695952209557 14.14970199046658 1.5723599594904307 0 0 0
59 1 3.143430713439721 12.577391789589475 0.0014864698464422442 0 0 0
60 1 4.715508959170158 14.150138864068797 1.5727941154485419 0 0 0
61 1 6.287318753737908 12.577587711926652 0.0023762002251484313 0 0 0
62 1 7.860651447650608 14.150490401096313 1.5723055719119183 0 0 0
63 1 9.433829208149279 12.577540041476103 0.001329750405260246 0 0 0
64 1 11.007235875827956 14.150584747123736 1.5711110524016716 0 0 0
65 1 12.580432542168984 12.577528557115661 8.563308133468168e-05 0 0 0
66 1 14.15358393508436 14.150541973320358 1.5698094550363886 0 0 0
67 1 15.726029551987313 12.577580156774651 22.00892444581363 0 0 -1
68 1 17.297942919247088 14.150087655164711 1.5703326449862232 0 0 0
69 1 18.868933839871463 12.577228346491724 22.008950779906993 0 0 -1
70 1 20.440194323522128 14.149628694786928 1.5714188581651356 0 0 0
71 1 0.0008473675902777974 15.722038424090922 0.0009410212532939863 0 0 0
72 1 1.5722431627398303 17.294347182586947 1.5730455113421176 0 0 0
73 1 3.1430142480016037 15.72272855906586 0.0025605794950179783 0 0 0
74 1 4.715432210409913 17.295292365344586 1.5740074111248494 0 0 0
75 1 6.28695856416505 15.723978639387362 0.004718211684573604 0 0 0
76 1 7.860969718754471 17.29524200926065 1.5744638654566236 0 0 0
77 1 9.433481805955434 15.724103422755379 0.004296497545553585 0 0 0
78 1 11.00673858404851 17.295025200227382 1.5738504691967776 0 0 0
79 1 12.579950751967601 15.723683505974153 0.002624355302996406 0 0 0
80 1 14.152280331336149 17.29495943196529 1.572579944644265 0 0 0
81 1 15.72547438643737 15.723301016764305 0.0010754496233130186 0 0 0
82 1 17.297117990326885 17.29489579797434 1.5716416349196354 0 0 0
83 1 18.86846670254534 15.722260082636963 0.00025631009833474556 0 0 0
84 1 20.4396644332845 17.294131426467768 1.5721318541808504 0 0 0
85 1 0.0004965547271217505 18.866359262923062 0.0013879712884205093 0 0 0
86 1 1.5721878788647574 20.438063141053224 1.5732006296142313 0 0 0
87 1 3.1428270892510497 18.867520052106382 0.003147723065967894 0 0 0
88 1 4.7162748079115016 20.438178232604635 1.5739570230175828 0 0 0
89 1 6.287867891833748 18.86777568264768 0.003946047557760954 0 0 0
90 1 7.861331658745719 20.437976966076523 1.574203991102356 0 0 0
91 1 9.433683251737722 18.86756924910509 0.003711238214142433 0 0 0
92 1 11.006585547687406 20.437679301239225 1.5738349253777943 0 0 0
93 1 12.579369247949854 18.867182911033893 0.0027864017521680175 0 0 0
94 1 14.15161848194257 20.4375224321639 1.5731315034821214 0 0 0
95 1 15.72438024501915 18.866863987732952 0.0016676834905202482 0 0 0
96 1 17.29607295499525 20.437575882819996 1.5724884328291178 0 0 0
97 1 18.868053092639077 18.866504495621793 0.0009092218765648359 0 0 0
98 1 20.43933651552538 20.437652949081542 1.5724457952674278 0 0 0
99 1 0.0011807518186459618 22.008988051217266 3.144197898140223 0 -1 0
100 1 1.5725645807080741 1.5706269840750002 4.715553731191001 0 0 0
101 1 3.1443905473708647 22.008982577393436 3.1445061391136035 0 -1 0
102 1 4.716217803580273 1.5698866489971866 4.7153673323333 0 0 0
103 1 6.28903854237303 22.008724489940533 3.1448784021268206 0 -1 0
104 1 7.861534327972512 1.569501685801065 4.715507821562843 0 0 0
105 1 9.434112017691826 22.008344850863043 3.1448118760700825 0 -1 0
106 1 11.0068891000569 1.5690068112960238 4.715264072652772 0 0 0
107 1 12.579203517733504 22.008085354935222 3.1444179599452466 0 -1 0
108 1 14.152231908296452 1.5687276557350425 4.714910985648737 0 0 0
109 1 15.724055393276245 22.008143949725767 3.1439280994634244 0 -1 0
110 1 17.29734645773084 1.5689339886640263 4.714623291889292 0 0 0
111 1 18.868195902642572 22.008508817413684 3.143700968889993 0 -1 0
112 1 20.440032825268958 1.570342044749986 4.715481624438163 0 0 0
113 1 0.0018164964129536378 3.1423346548262883 3.143244904696488 0 0 0
114 1 1.5726821541833023 4.713970502433469 4.714463919431565 0 0 0
115 1 3.143785248476215 3.141591009553135 3.143027564930122 0 0 0
116 1 4.7137749958718 4.7111136242966944 4.711630140336828 0 0 0
117 1 6.28857245748748 3.141149177823603 3.14319023543726 0 0 0
118 1 7.860807735006103 4.710912790380853 4.712071055125617 0 0 0
119 1 9.434195839345524 3.1406886162092285 3.1430052147674017 0 0 0
120 1 11.00766202660707 4.710237553244545 4.711695005878968 0 0 0
121 1 12.579943724429816 3.1403068227720476 3.142517030807395 0 0 0
122 1 14.154734738835895 4.709522497014897 4.710828331306361 0 0 0
123 1 15.72547072088006 3.140237005085619 3.142009360786895 0 0 0
124 1 17.30145829889291 4.709640456508393 4.710537070992025 0 0 0
125 1 18.869744332305835 3.141014527195027 3.1421960335267536 0 0 0
126 1 20.441759763196504 4.713447413789776 4.714025111717392 0 0 0
127 1 0.002352761715258703 6.2867415802021265 3.1425993880444714 0 0 0
128 1 1.573087873778404 7.859085104015254 4.714115696304192 0 0 0
129 1 3.1437903600018693 6.286186911300792 3.1421844016628926 0 0 0
130 1 4.714000562125919 7.857436313648192 4.711126692108132 0 0 0
131 1 6.286955381292449 6.284016295788204 3.1395172438775236 0 0 0
132 1 7.858040031590884 7.853579908962034 4.70385572443917 0 0 0
133 1 9.43414759093209 6.283416198623536 3.1395015194513087 0 0 0
134 1 11.008732434702216 7.852825912318471 4.7044878801493395 0 0 0
135 1 12.581352892219217 6.282920373132702 3.138579485932196 0 0 0
136 1 14.160290481229646 7.851543925687257 4.701171569342867 0 0 0
137 1 15.728605469339703 6.282746962752092 3.1375840448301737 0 0 0
138 1 17.30241659961131 7.856275641258002 4.70951536283527 0 0 0
139 1 18.870833877927044 6.285539003128666 3.141006779268901 0 0 0
140 1 20.442377327724444 7.858662762566183 4.713433257814315 0 0 0
141 1 0.002501500244491025 9.431901203884099 3.142496741617202 0 0 0
142 1 1.5732203085020888 11.004608686866591 4.714309317545985 0 0 0
143 1 3.1440459888860963 9.431722980291001 3.142225875982895 0 0 0
144 1 4.714700968651986 11.004486517213008 4.71178104202362 0 0 0
145 1 6.287148530705978 9.43056973704905 3.139149397242359 0 0 0
146 1 7.85894766897121 11.002806417945068 4.7046589214481775 0 0 0
147 1 9.434108650811332 9.429238662268132 3.1350357411214382 0 0 0
148 1 11.009738532183398 11.00171077499485 4.698019786800772 0 0 0
149 1 12.582753570115182 9.428767567428094 3.133408294278838 0 0 0
150 1 14.159293064108947 11.003175587445252 4.702669485103711 0 0 0
151 1 15.728776117332826 9.430059946397096 3.1371986127690943 0 0 0
152 1 17.301716336629994 11.004021547800509 4.7098278687085635 0 0 0
153 1 18.87090519197461 9.43134030356705 3.1407816499633006 0 0 0
154 1 20.442127674943965 11.004427614295345 4.713548895324121 0 0 0
155 1 0.0022325177913556328 12.57714484098678 3.1429650568663994 0 0 0
156 1 1.5728417027080805 14.149876315621803 4.715038247373336 0 0 0
157 1 3.14404486940307 12.577313353232036 3.1429375450608212 0 0 0
158 1 4.7147195337129295 14.15066126974429 4.713327323106034 0 0 0
159 1 6.287578367135029 12.577434506594887 3.14092758899297 0 0 0
160 1 7.8591404257316055 14.151625208873597 4.709351459144007 0 0 0
161 1 9.434090419243734 12.577254086041064 3.1369464681419217 0 0 0
162 1 11.008274711188879 14.151225473535646 4.708702813673991 0 0 0
163 1 12.58202539865011 12.577412402390909 3.1359444841488298 0 0 0
164 1 14.157328060307764 14.152773823084642 4.706209378331594 0 0 0
165 1 15.727988112712007 12.577586420056557 3.138449388836939 0 0 0
166 1 17.30050047752832 14.15099510682317 4.711415001976104 0 0 0
167 1 18.870368636054184 12.577226435263238 3.1413970278607124 0 0 0
168 1 20.441383998285236 14.149877523760662 4.714337289895701 0 0 0
169 1 0.001726157455092756 15.721986523998156 3.1436907260405986 0 0 0
170 1 1.5723694577568677 17.294566251454622 4.715599810871195 0 0 0
171 1 3.143855697166084 15.722436765447783 3.1438972541353087 0 0 0
172 1 4.714838981317384 17.29602154342835 4.71431261150165 0 0 0
173 1 6.287666620142514 15.72328736307207 3.1430524166729596 0 0 0
174 1 7.861228607744918 17.29493850558094 4.715569070878484 0 0 0
175 1 9.4339653843007 15.722804177928225 3.1433409127137857 0 0 0
176 1 11.006732864174868 17.29447070778145 4.71546802827111 0 0 0
177 1 12.580306985394687 15.723084806075057 3.141972066940368 0 0 0
178 1 14.152741540986188 17.295361987205283 4.714059977030087 0 0 0
179 1 15.726624481987663 15.723681695400094 3.1405630680132446 0 0 0
180 1 17.298925488907173 17.29630324459144 4.713054481861485 0 0 0
181 1 18.869512532088915 15.72243604914539 3.142481313862973 0 0 0
182 1 20.44043495624723 17.294469228129426 4.715204225658536 0 0 0
183 1 0.0012725308777053771 18.866060208618656 3.1441796762281506 0 0 0
184 1 1.5723187671217136 20.43797103116265 4.715971052720949 0 0 0
185 1 3.143864697220102 18.866715646329876 3.144479968453432 0 0 0
186 1 4.716379383037252 20.437934677480882 4.716219176105976 0 0 0
187 1 6.288769037482344 18.866512128733465 3.1451887644648084 0 0 0
188 1 7.861576782741448 20.437315705153534 4.716634374878402 0 0 0
189 1 9.434042181189016 18.86611773649799 3.1452530951445263 0 0 0
190 1 11.006582599975527 20.436897358995505 4.716482850657194 0 0 0
191 1 12.579222499010934 18.86600807329567 3.1446682284958083 0 0 0
192 1 14.151590195094059 20.437007535793338 4.715999085971375 0 0 0
193 1 15.72436581327048 18.86629228623771 3.143739301836655 0 0 0
194 1 17.29654160166555 20.437528001166562 4.715431814350884 0 0 0
195 1 18.868630332552883 18.86638766124124 3.1434273427896042 0 0 0
196 1 20.439497345824368 20.43752715200589 4.715925739804017 0 0 0
197 1 0.001180498929363195 22.009051432034383 6.288060267881643 0 -1 0
198 1 1.572449773459038 1.571086257007549 7.859893725981908 0 0 0
199 1 3.14397288076381 22.0092354272654 6.287687079021017 0 -1 0
200 1 4.715544173798452 1.5700317801228327 7.859196329133776 0 0 0
201 1 6.288718826560884 22.00858118641019 6.287817812319781 0 -1 0
202 1 7.860997975815502 1.5690181871268993 7.859148438988336 0 0 0
203 1 9.434097128412345 22.007897634995064 6.287979351799903 0 -1 0
204 1 11.006857431520956 1.5686136192764153 7.859230709741312 0 0 0
205 1 12.579191416181231 22.007515067790894 6.2877942443926145 0 -1 0
206 1 14.152608764484834 1.5677317565520927 7.859113033762214 0 0 0
207 1 15.724438211128216 22.00770540054606 6.287441482096791 0 -1 0
208 1 17.29713718006842 1.5692195442115036 7.85951407741935 0 0 0
209 1 18.868181389433353 22.008430448207758 6.2878006569520934 0 -1 0
210 1 20.439814985192456 1.570630325610482 7.859971380686079 0 0 0
211 1 0.0018126479771655836 3.142227944440302 6.287277747249859 0 0 0
212 1 1.5722714056497744 4.714133546922994 7.858953136151866 0 0 0
213 1 3.143203155736183 3.141120810034505 6.286177179998136 0 0 0
214 1 4.711785146239993 4.709649040532667 7.854850865868381 0 0 0
215 1 6.287687107495835 3.139334106569414 6.285466795707141 0 0 0
216 1 7.859247444082054 4.7071270969860315 7.854785101536117 0 0 0
217 1 9.434341828012819 3.13928510742349 6.285650589710287 0 0 0
218 1 11.008408915653272 4.708292983623797 7.855490112101221 0 0 0
219 1 12.580385891722498 3.1384252570104034 6.285318525316403 0 0 0
220 1 14.158295420672669 4.703568826624798 7.853540037395966 0 0 0
221 1 15.727277679545486 3.1374561106407524 6.284612664761819 0 0 0
222 1 17.301360509307305 4.710062345865785 7.856858474197666 0 0 0
223 1 18.870035659338413 3.14074354196885 6.286501090053835 0 0 0
224 1 20.441664831997688 4.713691295347271 7.859044905984593 0 0 0
225 1 0.0029710407217851324 6.2864664558402765 6.286514406294409 0 0 0
226 1 1.5730180025034959 7.859613022652988 7.85889106097486 0 0 0
227 1 3.1423125625186388 6.285317240342077 6.284925002746541 0 0 0
228 1 4.710167780708844 7.8566510523384965 7.854106230288256 0 0 0
229 1 6.280587943818731 6.27724026028776 6.275632450075492 0 0 0
230 1 7.839743470983262 7.835380147869314 7.8278472314967065 0 0 0
231 1 9.434190761067105 6.279191132696256 6.278945707287555 0 0 0
232 1 11.011294529500288 7.846804912313968 7.841921352922879 0 0 0
233 1 12.583737745942209 6.277601512623955 6.277592102448447 0 0 0
234 1 14.187759205983662 7.82594374190492 7.823564835892916 0 0 0
235 1 15.737960715156218 6.273747663435623 6.27376280716132 0 0 0
236 1 17.308827201328285 7.853792119248077 7.852903721909256 0 0 0
237 1 18.873850392097907 6.283869611380657 6.283999466453653 0 0 0
238 1 20.443851099146244 7.858665820251818 7.858304966274513 0 0 0
239 1 0.0032768491085958377 9.431829895443244 6.286185642642948 0 0 0
240 1 1.5729173497601914 11.004933614051565 7.85864094313618 0 0 0
241 1 3.142933573061997 9.431580659389578 6.284841197100406 0 0 0
242 1 4.711339324898962 11.00504230737607 7.853963356523128 0 0 0
243 1 6.282736174681171 9.428731446496414 6.276684990475555 0 0 0
244 1 7.850861107497007 11.000546771388823 7.834824530513905 0 0 0
245 1 9.430732284400174 9.422410123737057 6.262720466950256 0 0 0
246 1 11.017432435038103 10.992290928206804 7.809974184223175 0 0 0
247 1 12.592624506125134 9.420258956871985 6.257805221321285 0 0 0
248 1 14.173811072531997 11.003115848333362 7.833160240002515 0 0 0
249 1 15.736378615592805 9.427336560253922 6.275040480857964 0 0 0
250 1 17.306701266111194 11.003763697885518 7.852309429223121 0 0 0
251 1 18.873961954278716 9.430674414952513 6.283557661310531 0 0 0
252 1 20.443444599991672 11.004494623257747 7.858046453163268 0 0 0
253 1 0.0028036613979141216 12.57731530000511 6.286577395495052 0 0 0
254 1 1.572042641856013 14.150177196503629 7.859402371975796 0 0 0
255 1 3.1430408847204836 12.577767991043217 6.2855409475545265 0 0 0
256 1 4.710395369231122 14.152858047988031 7.855710475087386 0 0 0
257 1 6.284448934584316 12.578550869918953 6.279677863238457 0 0 0
258 1 7.847739583242353 14.16028827115548 7.8435875872394245 0 0 0
259 1 9.432424120285182 12.577928156257837 6.265304976902948 0 0 0
260 1 11.009327321114172 14.150681042092442 7.849343368015743 0 0 0
261 1 12.5888276982949 12.580163290145487 6.265107678844993 0 0 0
262 1 14.176168815356078 14.169293869860304 7.835219609459733 0 0 0
263 1 15.734170939426644 12.579156325329743 6.277069752955151 0 0 0
264 1 17.304592108813004 14.152187238073111 7.855075561949902 0 0 0
265 1 18.872866002236194 12.577549287030097 6.284250017213467 0 0 0
266 1 20.442032756460215 14.149956883707642 7.858960260471521 0 0 0
267 1 0.0018527130142588133 15.722280402043346 6.287336200643351 0 0 0
268 1 1.5710763996964685 17.295394192229715 7.859460712600354 0 0 0
269 1 3.142454811704939 15.723462761280091 6.286261890121809 0 0 0
270 1 4.7107351178835595 17.300142230473423 7.855478186971198 0 0 0
271 1 6.283918705543885 15.726900689006822 6.281375063274232 0 0 0
272 1 7.859710796055279 17.297821419737957 7.858434235872962 0 0 0
273 1 9.43371327223609 15.722904048989554 6.284940370015539 0 0 0
274 1 11.006487717227355 17.294712760381696 7.8597127065161505 0 0 0
275 1 12.58112723518091 15.724479485577069 6.282990218318241 0 0 0
276 1 14.154855338017853 17.299209376556 7.8568621888729755 0 0 0
277 1 15.732624258792745 15.729056264578844 6.278966926040219 0 0 0
278 1 17.29868470991817 17.296097150646403 7.858303856392961 0 0 0
279 1 18.871289182611775 15.723295744066915 6.285645076905158 0 0 0
280 1 20.439960043891357 17.29458052181361 7.859728877599985 0 0 0
281 1 0.0009529130688159135 18.86633719469919 6.287818179638672 0 0 0
282 1 1.5719513101690459 20.438341794652242 7.860086268113763 0 0 0
283 1 3.142782805490534 18.86781650076749 6.286797266458751 0 0 0
284 1 4.7152117727915535 20.43943458688419 7.8595324426007185 0 0 0
285 1 6.28815764732158 18.86750358523368 6.287421929313645 0 0 0
286 1 7.8608648941853705 20.43838903180619 7.860071935413146 0 0 0
287 1 9.434025756914277 18.865963322106722 6.288125156973488 0 0 0
288 1 11.00633836048468 20.437201136920134 7.86032893633521 0 0 0
289 1 12.579024848450759 18.866068129646838 6.2877842089385245 0 0 0
290 1 14.151691176163407 20.437650709800895 7.859996099564617 0 0 0
291 1 15.725266712901249 18.867596256689207 6.28655403113339 0 0 0
292 1 17.296257860302944 20.437539730978543 7.859971523121721 0 0 0
293 1 18.868596534626572 18.866420201577633 6.287414964440878 0 0 0
294 1 20.43916448499397 20.437656048882143 7.860220055289534 0 0 0
295 1 0.0007663632100177051 22.009498087017725 9.43246230724742 0 -1 0
296 1 1.5719723952349232 1.5717209561357337 11.004646444797936 0 0 0
297 1 3.143425416677886 0.00047644604561319876 9.432241760387978 0 0 0
298 1 4.714919565340989 1.571228952810974 11.004417538454359 0 0 0
299 1 6.287951695223858 0.0003588913001743949 9.432315548586734 0 0 0
300 1 7.86052819835112 1.5704780640388507 11.004866270611174 0 0 0
301 1 9.433497472760065 22.008898830777188 9.432374673914541 0 -1 0
302 1 11.006124833931688 1.5694518248637606 11.004977230157722 0 0 0
303 1 12.578887822744344 22.008116737038684 9.432545053762851 0 -1 0
304 1 14.152133039706653 1.5692079825476977 11.004699071814931 0 0 0
305 1 15.724128416828846 22.008219679322778 9.432357671341105 0 -1 0
306 1 17.296650836214607 1.5700475704590373 11.004588678398347 0 0 0
307 1 18.867796767161725 22.008795730563264 9.432402477434811 0 -1 0
308 1 20.439336478968908 1.571171774233541 11.004678379593061 0 0 0
309 1 0.0015227993583480483 3.142763815066513 9.432102050515125 0 0 0
310 1 1.5720945273616946 4.714733346724799 11.004269086759486 0 0 0
311 1 3.1432888202886544 3.14221732762405 9.431564305505864 0 0 0
312 1 4.71297600206222 4.712190537771681 11.003102493138242 0 0 0
313 1 6.286793113276691 3.1391747235127245 9.430477547507634 0 0 0
314 1 7.858165862798743 4.707295720538482 11.002934011383267 0 0 0
315 1 9.433617385442586 3.1383557697732978 9.430352580800932 0 0 0
316 1 11.006394916128427 4.705626845905261 11.003921379367986 0 0 0
317 1 12.580601176924107 3.1373202291103537 9.430861951820242 0 0 0
318 1 14.155800594649929 4.707938035627475 11.003987079244787 0 0 0
319 1 15.726483821573616 3.1389090282857337 9.431244798825775 0 0 0
320 1 17.299628155989637 4.711742051688952 11.004032698887727 0 0 0
321 1 18.86940920163208 3.141476960603269 9.43186151036136 0 0 0
322 1 20.440855142390387 4.714339145784539 11.004372875542487 0 0 0
323 1 0.0027047653756533015 6.2869911915166705 9.431814136895278 0 0 0
324 1 1.573170475595233 7.860344457039649 11.004666021111523 0 0 0
325 1 3.1414837334121595 6.285937125525375 9.430496427006819 0 0 0
326 1 4.709995357438063 7.858849210034084 11.002753379201057 0 0 0
327 1 6.274793163452157 6.273153790621619 9.418289167542813 0 0 0
328 1 7.822359717556028 7.826186684675031 10.962167422749099 0 0 0
329 1 9.432914073437095 6.2735203945893945 9.425124821861747 0 0 0
330 1 11.027221046769403 7.827201800073307 10.963323336532222 0 0 0
331 1 12.590938815566972 6.268403028371449 9.42324416206251 0 0 0
332 1 14.175680913236613 7.841177030911263 10.998707535389798 0 0 0
333 1 15.735412947922285 6.277525291189504 9.426665885350005 0 0 0
334 1 17.3054328410214 7.855437939431972 11.00289435813523 0 0 0
335 1 18.873052313250284 6.284684498193541 9.430666334029905 0 0 0
336 1 20.44284862063934 7.859273948300557 11.004218536248203 0 0 0
337 1 0.0038774600882418805 9.432542319109107 9.431873947699563 0 0 0
338 1 1.5746989965185987 11.005610782751178 11.005383832966631 0 0 0
339 1 3.1432617990801 9.433653531015734 9.431290410806447 0 0 0
340 1 4.718072935815698 11.008153708365617 11.007483014679615 0 0 0
341 1 6.276211880407759 9.432802928186533 9.420399714668022 0 0 0
342 1 7.85105287256224 10.999824541683433 10.98211895119848 0 0 0
343 1 9.37577507190753 9.3690048601341 9.363671190266638 0 0 0
344 1 11.11542014924664 10.924461876452117 10.525551606061121 0 0 0
345 1 12.677907328313479 9.349924054630554 9.344118130969232 0 0 0
346 1 14.152303543846608 11.002471875230711 10.986536860810713 0 0 0
347 1 15.7472267891846 9.426076238412117 9.422125081744497 0 0 0
348 1 17.302020360412325 11.004127866443957 11.001361798986494 0 0 0
349 1 18.8753644779458 9.431163043445235 9.430001104079256 0 0 0
350 1 20.442610112115624 11.004798144512684 11.004172541147128 0 0 0
351 1 0.0028401504959996524 12.577301523448748 9.432088306140745 0 0 0
352 1 1.5711356894810573 14.150621740123716 11.005547058440927 0 0 0
353 1 3.1419410333956237 12.577844443073495 9.431592280336819 0 0 0
354 1 4.706092093317321 14.155451027110825 11.005447059375914 0 0 0
355 1 6.273905996997752 12.580819895840799 9.422530053542706 0 0 0
356 1 7.812372197738532 14.199478465348786 10.966871305369908 0 0 0
357 1 9.394491210902808 12.613978613302507 9.366117791361196 0 0 0
358 1 11.019281772894258 14.18539447316224 10.975590985936233 0 0 0
359 1 12.64806549197261 12.630421563805848 9.367173046000289 0 0 0
360 1 14.170300006959367 14.163384739045794 10.99926689176484 0 0 0
361 1 15.741719928475655 12.578627319214636 9.424102020021923 0 0 0
362 1 17.302340148372917 14.151915994788355 11.003390004948145 0 0 0
363 1 18.87350030344329 12.577145039295317 9.43036824119141 0 0 0
364 1 20.440920647387284 14.150007241751563 11.004594045757175 0 0 0
365 1 0.0009183992265239171 15.72255716690336 9.432337753297423 0 0 0
366 1 1.569987461768163 17.29627295962662 11.004852207632366 0 0 0
367 1 3.139476865484324 15.725033024184787 9.43123815466382 0 0 0
368 1 4.710055678456848 17.301089371746624 11.004249721688113 0 0 0
369 1 6.271240837098072 15.739413351983766 9.41897440876599 0 0 0
370 1 7.855825889326026 17.306861907637135 11.005663632033377 0 0 0
371 1 9.430830947277526 15.727647053360634 9.430919480536666 0 0 0
372 1 11.003259606444372 17.303397548756845 11.007238394902373 0 0 0
373 1 12.58587613396304 15.731830571126103 9.427832663319712 0 0 0
374 1 14.152998374636912 17.298776690839006 11.005011928949022 0 0 0
375 1 15.731213273744192 15.727310374295927 9.428297208845834 0 0 0
376 1 17.297301954571672 17.295853434130045 11.004459726408294 0 0 0
377 1 18.870500400814308 15.723073285821943 9.431389789363058 0 0 0
378 1 20.438941865727003 17.294871647772002 11.004735779113673 0 0 0
379 1 0.0002866940858114632 18.8667221640011 9.432416511932725 0 0 0
380 1 1.5711990173886008 20.43906631169744 11.004865253677826 0 0 0
381 1 3.142023700998553 18.86850047434244 9.431950189054726 0 0 0
382 1 4.714056580736018 20.440830115092258 11.004834607641799 0 0 0
383 1 6.285691751450448 18.871494058444007 9.43137908962597 0 0 0
384 1 7.85990892026748 20.441188478019825 11.005650152059543 0 0 0
385 1 9.432647554215219 18.868959615032253 9.432117315338553 0 0 0
386 1 11.00543243947555 20.439676428528244 11.005739817375467 0 0 0
387 1 12.578888805740487 18.868144171859925 9.432562842470553 0 0 0
388 1 14.151335377289197 20.43848409272006 11.005122049817254 0 0 0
389 1 15.724637146874375 18.867415109356706 9.432111180090518 0 0 0
390 1 17.29583857677073 20.43795633832636 11.004780932925321 0 0 0
391 1 18.86788955069505 18.866423884296275 9.432290564425326 0 0 0
392 1 20.438601927978905 20.438078200542733 11.004824989337164 0 0 0
393 1 0.00022032460048462642 0.0004735796647125161 12.577195933274023 0 0 0
394 1 1.5714318585696392 1.5721232191414107 14.14970217551511 0 0 0
395 1 3.1426682928470746 0.0013319708331789538 12.577452266689201 0 0 0
396 1 4.714279540809979 1.5717027955746599 14.150382457583584 0 0 0
397 1 6.286781714503919 0.0019057131880244914 12.577786823335122 0 0 0
398 1 7.859839938134239 1.570574858923521 14.150743386507584 0 0 0
399 1 9.432977734786393 0.0013818266005618382 12.578157661538024 0 0 0
400 1 11.005864425066896 1.5706812527385359 14.150512561075246 0 0 0
401 1 12.578780988557932 0.00016016759926142102 12.577870658140872 0 0 0
402 1 14.152025827176976 1.5700203144283582 14.150097724477613 0 0 0
403 1 15.723905821665477 22.009114870180316 12.577272253644685 0 -1 0
404 1 17.296279250338905 1.5707074027867303 14.149567027308155 0 0 0
405 1 18.867376932031913 22.00933398432584 12.577117857036852 0 -1 0
406 1 20.43888638464173 1.5716064756330674 14.149411123433863 0 0 0
407 1 0.0009919847877620685 3.1432529405617546 12.576994142188079 0 0 0
408 1 1.5714205832606298 4.714994684292375 14.149607881188992 0 0 0
409 1 3.1427864636137706 3.142777421183286 12.577041453348885 0 0 0
410 1 4.712128095770891 4.711977381052788 14.150804810672026 0 0 0
411 1 6.285694798454516 3.140149138174106 12.577088096937642 0 0 0
412 1 7.856454305547174 4.703435809592555 14.15312621555053 0 0 0
413 1 9.432779724755246 3.1413411204906 12.577842715801507 0 0 0
414 1 11.00558654388724 4.708424213793918 14.152601240630188 0 0 0
415 1 12.579861182924823 3.139289890989494 12.577743176786681 0 0 0
416 1 14.154750227367717 4.708557609436031 14.150797169021693 0 0 0
417 1 15.725727895920711 3.1401978546738873 12.577099613836703 0 0 0
418 1 17.298556232225316 4.71267086491125 14.149828378385665 0 0 0
419 1 18.868706419173797 3.1422073656364966 12.576985018613387 0 0 0
420 1 20.44004498382657 4.714858725993664 14.149338857373076 0 0 0
421 1 0.0018985478310533624 6.287328320256335 12.576861386366996 0 0 0
422 1 1.5718846240387003 7.860424365701999 14.149309253219002 0 0 0
423 1 3.1415840490449094 6.28597176233145 12.576785339825589 0 0 0
424 1 4.707428536086811 7.85775769466531 14.151320767794285 0 0 0
425 1 6.279388995976257 6.278283524658568 12.576058193188386 0 0 0
426 1 7.810677368890825 7.80802864830426 14.201144151714844 0 0 0
427 1 9.428894498955916 6.286850236931521 12.580078292782106 0 0 0
428 1 11.024706225804941 7.835829623545266 14.193448186824506 0 0 0
429 1 12.58125111805409 6.275552507837117 12.579155703004904 0 0 0
430 1 14.167836381602868 7.841638520709586 14.158333233281855 0 0 0
431 1 15.731015168010888 6.280867190085892 12.577510595859676 0 0 0
432 1 17.3017978569823 7.857080943675251 14.14955324509841 0 0 0
433 1 18.87122298535652 6.285658503415627 12.576818341846682 0 0 0
434 1 20.441134320327144 7.8598581695897645 14.149005092243856 0 0 0
435 1 0.0033510161415078225 9.432931558047734 12.576968433499328 0 0 0
436 1 1.5739306391610752 11.0056452740599 14.149636661386724 0 0 0
437 1 3.1466096776837627 9.433646358847728 12.57750603011527 0 0 0
438 1 4.71868828569998 11.007110744576481 14.150207594204353 0 0 0
439 1 6.29747836320359 9.430453164318154 12.576006887679942 0 0 0