LAMMPS data file via write_data, version 2 Aug 2023, timestep = 57, units = metal

693 atoms
3 atom types

0 22.009546999999998 xlo xhi
0 22.009546999999998 ylo yhi
0 22.009546999999998 zlo zhi

Masses

1 183.84
2 1.008
3 4.0026

Atoms # atomic

1 1 22.008866996366187 22.007532807555528 0.00039580176365917625 -1 -1 0
2 1 1.5701151177523103 1.56950440328321 1.5723250742351065 0 0 0
3 1 3.1419855208261827 22.007430847096348 0.0001368270225997785 0 -1 0
4 1 4.7136435720230105 1.569347618035411 1.5719330160746776 0 0 0
5 1 6.2861258825973305 22.00751149851479 22.00934905460777 0 -1 -1
6 1 7.8583544088928665 1.5693597224802291 1.5716147394597302 0 0 0
7 1 9.430997044586098 22.007649350693193 22.009307493827077 0 -1 -1
8 1 11.003692985208005 1.5694149547027538 1.571554289115536 0 0 0
9 1 12.576275925183984 22.007744120818376 22.00946573047396 0 -1 -1
10 1 14.149126222191056 1.5693774919699064 1.5717733769686553 0 0 0
11 1 15.72150896276455 22.00778963594587 0.00022868285015322252 0 -1 0
12 1 17.294111198020875 1.5694032879643038 1.5721647591814043 0 0 0
13 1 18.866106390472662 22.007706405620784 0.0005565276400530981 0 -1 0
14 1 20.437770599359727 1.5695823357761758 1.5724575294643903 0 0 0
15 1 22.008696682314433 3.140647119404571 0.0017171820838083566 -1 0 0
16 1 1.5697569538005063 4.713256792544953 1.5729593946742197 0 0 0
17 1 3.1404955183644527 3.139556887576315 0.00217803463998805 0 0 0
18 1 4.711872548692721 4.711749741995277 1.5725943966036395 0 0 0
19 1 6.285144990800093 3.1393969714730274 0.0017012113407663815 0 0 0
20 1 7.8573839103803715 4.711510609616315 1.5718216652166328 0 0 0
21 1 9.430727850543185 3.1394198447191703 0.001472021902342451 0 0 0
22 1 11.003781112412028 4.711471208376882 1.571597830289642 0 0 0
23 1 12.576724914726958 3.1394002472185787 0.0015602983645368823 0 0 0
24 1 14.150192782121879 4.711430403954375 1.5720123474832455 0 0 0
25 1 15.722505104899053 3.139368793754773 0.0019715490083896904 0 0 0
26 1 17.29573179817146 4.711710652635876 1.5729220732401208 0 0 0
27 1 18.867238581039228 3.139661752702899 0.0023464940753461167 0 0 0
28 1 20.438017387342498 4.7131966321109635 1.5730660822963558 0 0 0
29 1 22.00868443308244 6.28543833713318 0.0019258389375696459 -1 0 0
30 1 1.5696831146012413 7.858458853982547 1.5726143826543162 0 0 0
31 1 3.1399965751627095 6.2847386252741675 0.0024887818220335044 0 0 0
32 1 4.71152473626728 7.85777702642056 1.5720225424916632 0 0 0
33 1 6.282916721689787 6.282758207449515 0.003940972967496646 0 0 0
34 1 7.855966964981828 7.85658975662114 1.570149506718777 0 0 0
35 1 9.43016347530392 6.2826477743675655 0.0025872424063456277 0 0 0
36 1 11.003748104600001 7.856305991609182 1.568870390699672 0 0 0
37 1 12.577471290589529 6.282580379539095 0.0027681501489451843 0 0 0
38 1 14.151604331245641 7.856388189914784 1.5707857006668973 0 0 0
39 1 15.724823671880614 6.2824906021682265 0.004324766706476434 0 0 0
40 1 17.29629786673312 7.857395970843873 1.572433163386197 0 0 0
41 1 18.867840387623097 6.284492641599062 0.002719360398674564 0 0 0
42 1 20.438160855181007 7.85831033827584 1.5727512612323733 0 0 0
43 1 22.008764791251707 9.43108765204675 0.0013013072542290961 -1 0 0
44 1 1.5697207121575187 11.004091521339843 1.5716611607956132 0 0 0
45 1 3.1401693646641116 9.431038488869696 0.0014826478929247256 0 0 0
46 1 4.711499485736681 11.004398616587176 1.570459455901519 0 0 0
47 1 6.283000557427946 9.430583955292539 0.002066028680131669 0 0 0
48 1 7.855763731629938 11.004929533280533 1.5675295937140687 0 0 0
49 1 9.429738508302016 9.429858158995112 0.0015656735678656417 0 0 0
50 1 11.003730918648124 11.005166230537277 1.5648576952623097 0 0 0
51 1 12.578065003274672 9.42967791013712 0.0023152551027851294 0 0 0
52 1 14.151955494551629 11.004730294371534 1.5683946011728098 0 0 0
53 1 15.725141478140674 9.430106903408097 0.003049977159406331 0 0 0
54 1 17.29651006718917 11.004140276206126 1.571118337335415 0 0 0
55 1 18.867915098891377 9.430735048302267 0.0019368781227830426 0 0 0
56 1 20.438245653007563 11.003995673357645 1.5718875621359318 0 0 0
57 1 22.008903363763142 12.576727113779754 0.00030589109896919805 -1 0 0
58 1 1.5698414245450538 14.14952448526314 1.570704820461707 0 0 0
59 1 3.1404877536407034 12.577095178446669 7.155084711540606e-06 0 0 0
60 1 4.711597181323138 14.150646258993042 1.5688865366751192 0 0 0
61 1 6.283505737217795 12.577830679413998 22.008864371236776 0 0 -1
62 1 7.855956959261064 14.152392346838472 1.5658047875425227 0 0 0
63 1 9.429781511030985 12.578432610852044 22.007915826434125 0 0 -1
64 1 11.00356199007008 14.152831395980314 1.5661809709450591 0 0 0
65 1 12.57795759723935 12.578660065190634 22.009418596873644 0 0 -1
66 1 14.15171242004074 14.152685374845374 1.5671066789139185 0 0 0
67 1 15.724953624682817 12.578048704242441 0.0011492442554278195 0 0 0
68 1 17.296571007430874 14.150931271382145 1.569838484419888 0 0 0
69 1 18.867881794177173 12.577118979737213 0.0007990672960056882 0 0 0
70 1 20.43835115714336 14.149584310014085 1.5710245959614018 0 0 0
71 1 22.009070082283902 15.721688596322593 22.00905375888399 -1 0 -1
72 1 1.5700646136208243 17.29421113481084 1.5702977731869714 0 0 0
73 1 3.140940702565936 15.722255692890764 22.00843912156273 0 0 -1
74 1 4.712140411332043 17.295821589539873 1.5684841419563484 0 0 0
75 1 6.284144138811463 15.723676310084109 22.007502453928574 0 0 -1
76 1 7.857614323997454 17.296120898714552 1.5681241948674844 0 0 0
77 1 9.430281075607486 15.723928338570062 22.007089150234556 0 0 -1
78 1 11.003559839972322 17.296346515660094 1.5683094801684434 0 0 0
79 1 12.576977207654412 15.72429894643957 22.008035768441403 0 0 -1
80 1 14.149858940542009 17.296440288408476 1.5688915263421483 0 0 0
81 1 15.724228087105777 15.724590191488115 22.009535886779403 0 0 -1
82 1 17.295932209514124 17.296261081488158 1.569544357668996 0 0 0
83 1 18.867721010287593 15.722751937170704 22.009477920388186 0 0 -1
84 1 20.438297518982484 17.294411495519586 1.5706430787174546 0 0 0
85 1 22.009073927269448 18.8654840412301 22.009024420295674 -1 0 -1
86 1 1.5703779066090005 20.437302729441154 1.570956222090825 0 0 0
87 1 3.141536424166823 18.865966462992333 22.00837533596546 0 0 -1
88 1 4.713835306048414 20.43754774715573 1.570425289790608 0 0 0
89 1 6.285812199579365 18.866155209796823 22.007856891462463 0 0 -1
90 1 7.858434512568217 20.43772291365816 1.5701823781100395 0 0 0
91 1 9.430814963194633 18.86640928114936 22.007848462801594 0 0 -1
92 1 11.003614286453947 20.43784537155129 1.5702037976955219 0 0 0
93 1 12.5763568640379 18.866652700206593 22.008246857477875 0 0 -1
94 1 14.148989719798665 20.437885466399578 1.5705218586320981 0 0 0
95 1 15.722045557301097 18.86681485587268 22.008857487161954 0 0 -1
96 1 17.294043975584437 20.437824693284096 1.5709281220807634 0 0 0
97 1 18.867008145845208 18.86657093723756 22.009298196360817 0 0 -1
98 1 20.437825697077447 20.437451316046015 1.5712506482812116 0 0 0
99 1 22.00875381692723 22.00859468026159 3.1433677746441475 -1 -1 0
100 1 1.5699748581734898 1.5702798316337352 4.715107842659346 0 0 0
101 1 3.141816723751981 22.008815506823296 3.1428234131209556 0 -1 0
102 1 4.7133189981071055 1.5701674057817647 4.714465817921703 0 0 0
103 1 6.286042060563797 22.008911270832847 3.142453663323721 0 -1 0
104 1 7.8582692231612565 1.57017368432825 4.714044086359227 0 0 0
105 1 9.431037370753334 22.009007926308175 3.1422243258803935 0 -1 0
106 1 11.003716285611885 1.570238834332597 4.713846520938922 0 0 0
107 1 12.576350113735451 22.009012339750683 3.142296751845028 0 -1 0
108 1 14.149223433349349 1.5700831379101514 4.714111338468061 0 0 0
109 1 15.721542966786904 22.0089469227166 3.1426324238125978 0 -1 0
110 1 17.29440691234644 1.5700518097182021 4.714454624174592 0 0 0
111 1 18.866040854955155 22.008864587245732 3.143001141745248 0 -1 0
112 1 20.43769804363412 1.5703026567437295 4.715171181466876 0 0 0
113 1 22.00861745146526 3.141747611370143 3.1440180604612085 -1 0 0
114 1 1.5693696236763934 4.713682612936945 4.715178844066712 0 0 0
115 1 3.1407846389473373 3.1408871212784337 3.1432876650716843 0 0 0
116 1 4.710519603323017 4.711143762318256 4.7121426036089415 0 0 0
117 1 6.285252989035662 3.1405832234555326 3.142728100097619 0 0 0
118 1 7.856805585221794 4.711028143838779 4.711545421575247 0 0 0
119 1 9.430791874051808 3.1406011230265474 3.142303922807965 0 0 0
120 1 11.00383841999763 4.7112236270025685 4.710981287198276 0 0 0
121 1 12.57672524281895 3.1405430305180313 3.1423697751443425 0 0 0
122 1 14.150868981301517 4.710840559390585 4.711550546637059 0 0 0
123 1 15.722376593882519 3.140493833162021 3.142815430090272 0 0 0
124 1 17.296679237899838 4.711297561935516 4.712684680370502 0 0 0
125 1 18.86681383659579 3.1409395431364353 3.1435037497874267 0 0 0
126 1 20.43798399864751 4.7136537911971015 4.71531000182534 0 0 0
127 1 22.00859577442819 6.286144426663224 3.1440838355770246 -1 0 0
128 1 1.5692795660391017 7.858701235060271 4.714869072338321 0 0 0
129 1 3.140322817158335 6.285570181857934 3.14326133125839 0 0 0
130 1 4.710298304711117 7.857693688715124 4.711888220935064 0 0 0
131 1 6.282843855922063 6.283439387931662 3.140205611578938 0 0 0
132 1 7.852829414419065 7.854283047035699 4.70302972158622 0 0 0
133 1 9.429838876231749 6.283380632759604 3.138983372179958 0 0 0
134 1 11.003816944662898 7.854999300630551 4.700821654145904 0 0 0
135 1 12.577749411826117 6.283328778560857 3.139173350107962 0 0 0
136 1 14.154135209728711 7.854447184237494 4.7043858653017345 0 0 0
137 1 15.724491718927528 6.283448235213436 3.1408719201623105 0 0 0
138 1 17.297142491443946 7.857202354660403 4.712131416344655 0 0 0
139 1 18.867293159093194 6.285358024286046 3.1434878090212646 0 0 0
140 1 20.438088776035332 7.858556167939844 4.714998739475278 0 0 0
141 1 22.00861004672632 9.43131957618063 3.143450500877139 -1 0 0
142 1 1.569109569200782 11.004099668792232 4.714010982720757 0 0 0
143 1 3.140156014930112 9.43129432472012 3.142403679768857 0 0 0
144 1 4.7097425998752 11.00450491697248 4.710582339819083 0 0 0
145 1 6.282568981076198 9.431002407604826 3.1389454913026595 0 0 0
146 1 7.852117393666075 11.00652216781289 4.701122819231669 0 0 0
147 1 9.42860027935006 9.430665977426367 3.1318831974059185 0 0 0
148 1 11.003634011868604 11.00832495210806 4.687831447667364 0 0 0
149 1 12.578668706316712 9.430451522045807 3.132542016631928 0 0 0
150 1 14.155016491784163 11.006014930546437 4.700526487526464 0 0 0
151 1 15.725030767531992 9.430530404181498 3.1392984540166373 0 0 0
152 1 17.297718755927175 11.004135291187758 4.710559723690974 0 0 0
153 1 18.8675499687976 9.431006254479243 3.142650471749106 0 0 0
154 1 20.438275976335134 11.004002147406387 4.714110527733466 0 0 0
155 1 22.008677209438808 12.576798693689385 3.14261162627272 -1 0 0
156 1 1.5689121344105352 14.149861954096862 4.713280814828257 0 0 0
157 1 3.139942524699527 12.57727507171858 3.141282563219126 0 0 0
158 1 4.708663808381208 14.15222943347528 4.709032082707204 0 0 0
159 1 6.281921431215696 12.578948175268959 3.1368445383795214 0 0 0
160 1 7.850264827992094 14.158827281844053 4.6979742882642075 0 0 0
161 1 9.428225228135108 12.581215446815287 3.130453672797741 0 0 0
162 1 11.003542993413522 14.157658192672395 4.701356689778734 0 0 0
163 1 12.579014900013872 12.581259001334006 3.1307608790522723 0 0 0
164 1 14.156809037976588 14.158545180477374 4.698553396214017 0 0 0
165 1 15.725772030307429 12.57892410932515 3.137212963839608 0 0 0
166 1 17.2990538919566 14.15250975228007 4.709003445013885 0 0 0
167 1 18.867860063996744 12.577229474016425 3.1416029985114298 0 0 0
168 1 20.438715139883204 14.149902514247453 4.713389198926258 0 0 0
169 1 22.008787368079958 15.722111732179954 3.1420376180500513 -1 0 0
170 1 1.5689578727900195 17.295484168092134 4.712944043165957 0 0 0
171 1 3.1399040135303786 15.723144670706235 3.140417312831431 0 0 0
172 1 4.708724011261401 17.299708307377326 4.7084900024520575 0 0 0
173 1 6.281836837237717 15.726553721540224 3.135619747584158 0 0 0
174 1 7.856517730973331 17.29955136511136 4.708984815626921 0 0 0
175 1 9.429797118239705 15.726533324691708 3.136279860746008 0 0 0
176 1 11.003677413551694 17.299411398012758 4.709018940609584 0 0 0
177 1 12.577432775735975 15.726581605012562 3.136612780206746 0 0 0
178 1 14.150942511594723 17.2995353924279 4.70922265150999 0 0 0
179 1 15.72570993980142 15.726649702935909 3.136530165422241 0 0 0
180 1 17.298687695648926 17.299603464196448 4.70908117150079 0 0 0
181 1 18.868105362421964 15.723385283814194 3.1408126393253335 0 0 0
182 1 20.43885502236766 17.295571956736154 4.713086307938528 0 0 0
183 1 22.00880975419137 18.866436433916917 3.1421577606218016 -1 0 0
184 1 1.570026890932309 20.43817808425653 4.714337144023711 0 0 0
185 1 3.1406072641593776 18.867589305631974 3.140838427707296 0 0 0
186 1 4.712954347109955 20.439415901493813 4.713249861792175 0 0 0
187 1 6.285181517091292 18.868087516403396 3.1402856339411716 0 0 0
188 1 7.858213859699982 20.439480814314596 4.713017727658574 0 0 0
189 1 9.43073890845324 18.868224682969274 3.1401581271623265 0 0 0
190 1 11.003689402942134 20.439504667472246 4.712863781323126 0 0 0
191 1 12.576567180530038 18.868276112741622 3.140337867736812 0 0 0
192 1 14.149242406712704 20.43946978430691 4.713141488960827 0 0 0
193 1 15.722424884009378 18.868243101280825 3.1407386722923514 0 0 0
194 1 17.294721015304614 20.439397213744694 4.713418983945685 0 0 0
195 1 18.867311096210873 18.867705693684965 3.1413095363967787 0 0 0
196 1 20.43783625263494 20.438237090712178 4.714417889633223 0 0 0
197 1 22.00864367236406 22.009068797994168 6.287169470750505 -1 -1 0
198 1 1.5700424812274232 1.5704936079215557 7.8592981359033764 0 0 0
199 1 3.141454536720597 22.009389961703874 6.286530309286003 0 -1 0
200 1 4.713041645144795 1.5700496673010333 7.858605060714301 0 0 0
201 1 6.285670518302261 0.0004994667820446214 6.285990598357436 0 0 0
202 1 7.858202995452351 1.5703392160079743 7.858270439873531 0 0 0
203 1 9.430997347262641 0.00048047831964747895 6.2856641513259 0 0 0
204 1 11.00357741647343 1.5702836760986396 7.857982245935934 0 0 0
205 1 12.576384517948082 0.00039126542515823903 6.2857110988424525 0 0 0
206 1 14.149300286107453 1.5698616581049187 7.858196446875745 0 0 0
207 1 15.721961366921198 0.00032669694121926926 6.285943865983518 0 0 0
208 1 17.29467443907888 1.5698119264737216 7.858464939695945 0 0 0
209 1 18.86627786153004 22.00934775849084 6.286541617612405 0 -1 0
210 1 20.437536008436428 1.5704931425296684 7.859302159185814 0 0 0
211 1 22.008412763466545 3.1419177374419696 6.287211149478117 -1 0 0
212 1 1.5685863516819232 4.71327260657507 7.858829382714588 0 0 0
213 1 3.1400439462861116 3.1407088235134935 6.285858448933343 0 0 0
214 1 4.707927055379874 4.708613491853821 7.854173670469593 0 0 0
215 1 6.284635816033104 3.1399713724994784 6.285185104719217 0 0 0
216 1 7.8561691679171055 4.7080967688635695 7.854615866737286 0 0 0
217 1 9.430631417582225 3.140237491218963 6.284498522671992 0 0 0
218 1 11.00359260739285 4.708774969931147 7.85351193815939 0 0 0
219 1 12.576789020269521 3.140068895338138 6.2846183901286095 0 0 0
220 1 14.152495121726865 4.706675696067048 7.853679227219509 0 0 0
221 1 15.723205361308612 3.139556847694435 6.284900040859088 0 0 0
222 1 17.298756119814556 4.709060974941364 7.854977805159451 0 0 0
223 1 18.867279826412265 3.1408044798335233 6.286078569184309 0 0 0
224 1 20.438078974717044 4.713473421895979 7.859079990796901 0 0 0
225 1 22.008158559922084 6.286274668440923 6.28725116543971 -1 0 0
226 1 1.568056209476675 7.858457521588611 7.85873207508368 0 0 0
227 1 3.1387983834576683 6.285178682714049 6.285462693686531 0 0 0
228 1 4.706979681673136 7.856375495901606 7.854675683629492 0 0 0
229 1 6.277647642904202 6.278489176037545 6.276451937719651 0 0 0
230 1 7.839239933555103 7.83815297012 7.830658477794709 0 0 0
231 1 9.429105296296086 6.280402304401158 6.276132635408809 0 0 0
232 1 11.004985144089172 7.849536538793967 7.830327561479958 0 0 0
233 1 12.57909512734087 6.28018220850821 6.276216829149128 0 0 0
234 1 14.16597659541427 7.8399781507010315 7.835494554679613 0 0 0
235 1 15.728780342434094 6.279108462731991 6.277978190295985 0 0 0
236 1 17.299267348041713 7.856116905585443 7.855375870724259 0 0 0
237 1 18.868048098112784 6.285104078098943 6.285822001203537 0 0 0
238 1 20.437729058926237 7.85867753815609 7.859161479647199 0 0 0
239 1 22.008200259905873 9.43130780987489 6.286682171588265 -1 0 0
240 1 1.5680672593165572 11.003842799135034 7.858119664627805 0 0 0
241 1 3.1389531972108453 9.431217990475567 6.284892848553333 0 0 0
242 1 4.7075085795579215 11.004222474216137 7.8541736803658315 0 0 0
243 1 6.279387753952054 9.430198367298674 6.2776728151883106 0 0 0
244 1 7.8466321252450895 11.006073085911082 7.836822037802603 0 0 0
245 1 9.423473777303043 9.427439505413906 6.251895207014274 0 0 0
246 1 11.00221021638303 11.020819888006878 7.777832682611075 0 0 0
247 1 12.583131989993264 9.42741174127438 6.2544887396544 0 0 0
248 1 14.162133512302898 11.00469210443726 7.830948328107155 0 0 0
249 1 15.728055149435377 9.428870729222295 6.277343512566919 0 0 0
250 1 17.299687346608856 11.003464527883093 7.853292394628698 0 0 0
251 1 18.86810643178399 9.430809670395059 6.285023736577977 0 0 0
252 1 20.43811732322082 11.003764412458743 7.858223210272049 0 0 0
253 1 22.008292998796673 12.57674094415251 6.285976574802162 -1 0 0
254 1 1.567223134969899 14.150052062694947 7.85760385031839 0 0 0
255 1 3.1378978073737027 12.57735388561095 6.2839604320642595 0 0 0
256 1 4.701341456890576 14.15549967860368 7.8514258795152 0 0 0
257 1 6.276061293921106 12.580561822999904 6.275103185447443 0 0 0
258 1 7.820522440731245 14.188592358602557 7.816317724648996 0 0 0
259 1 9.418424479074348 12.592140610376346 6.252093033589413 0 0 0
260 1 11.004698114185441 14.161038756273463 7.841985445536326 0 0 0
261 1 12.588119050542208 12.591498474630086 6.251949773510791 0 0 0
262 1 14.184412004070557 14.185620700486531 7.818093343951582 0 0 0
263 1 15.73163138875179 12.580902243164015 6.27372142605319 0 0 0
264 1 17.30633223396348 14.156470626117665 7.850504785577471 0 0 0
265 1 18.869316438557355 12.577337468401359 6.283930267283642 0 0 0
266 1 20.439513816302433 14.150096046425492 7.857689532967935 0 0 0
267 1 22.008481316294375 15.72273025300751 6.285510954448002 -1 0 0
268 1 1.5683933521704618 17.29558054377493 7.857789834839748 0 0 0
269 1 3.136656440484219 15.725139159700035 6.282792312045805 0 0 0
270 1 4.707455911730305 17.300971048377303 7.853721943636709 0 0 0
271 1 6.27161420275566 15.7371191882901 6.270066265204215 0 0 0
272 1 7.853912304536473 17.306152750686483 7.852091071749371 0 0 0
273 1 9.429264523083068 15.732142318156935 6.275884231016062 0 0 0
274 1 11.003801173847027 17.301586802875914 7.852943700286564 0 0 0
275 1 12.578401693713882 15.731984639018691 6.275791912446853 0 0 0
276 1 14.15381526346453 17.305910235646348 7.851953466331621 0 0 0
277 1 15.734956671500987 15.736344607493338 6.270954196212197 0 0 0
278 1 17.299862362913448 17.300951238597285 7.853839917962797 0 0 0
279 1 18.870844459868913 15.725395234419288 6.282787725982404 0 0 0
280 1 20.438668584836662 17.295460450236067 7.85798208395737 0 0 0
281 1 22.008569367035772 18.86686110213651 6.286182760017638 -1 0 0
282 1 1.5699580657852104 20.438199137400755 7.858859285840188 0 0 0
283 1 3.139835297965476 18.868545981923795 6.284816148473612 0 0 0
284 1 4.7125696989544785 20.440102690731283 7.857889568910436 0 0 0
285 1 6.283455920291406 18.87159226195894 6.282979629919184 0 0 0
286 1 7.857858807958806 20.44133455165056 7.857372828734769 0 0 0
287 1 9.430680725391902 18.870685459621033 6.283159462559885 0 0 0
288 1 11.003689617026458 20.440676144347115 7.857157407447054 0 0 0
289 1 12.576786567895232 18.870615589992696 6.283218513662247 0 0 0
290 1 14.149720077046185 20.441244465139807 7.857319239752726 0 0 0
291 1 15.724049124853995 18.87146939711672 6.283103043739688 0 0 0
292 1 17.295114994067763 20.439937204403986 7.857849964634703 0 0 0
293 1 18.86780434687285 18.868586207091 6.284899675922919 0 0 0
294 1 20.43770834787984 20.438159606898605 7.858879534558171 0 0 0
295 1 22.008621436729882 22.008779506984435 9.431539197426266 -1 -1 0
296 1 1.569945745309008 1.5698286580345215 11.003930287929368 0 0 0
297 1 3.1415060306455875 22.009065491890354 9.431316501627993 0 -1 0
298 1 4.71278108407085 1.5693717497256676 11.003790266646135 0 0 0
299 1 6.28580767646168 0.0007514135842606032 9.431259653786045 0 0 0
300 1 7.858807311913652 1.571140903595628 11.004803043214382 0 0 0
301 1 9.431007644095168 0.001213299276262363 9.430903618671442 0 0 0
302 1 11.003038968763402 1.5708622105427665 11.005005421123341 0 0 0
303 1 12.576186123746487 0.0009642666070976594 9.430965734578304 0 0 0
304 1 14.149001170311946 1.5693813493904012 11.004450823355697 0 0 0
305 1 15.721975366093634 0.0002318539387382326 9.43105422573616 0 0 0
306 1 17.294896506931067 1.5691330222845532 11.003715373055472 0 0 0
307 1 18.866241968943648 22.00902030742197 9.431248173958926 0 -1 0
308 1 20.437580009925544 1.569862440498532 11.00392471847767 0 0 0
309 1 22.008352010412082 3.14162967777755 9.43160867660779 -1 0 0
310 1 1.5684506393262256 4.712433100271706 11.003876448841545 0 0 0
311 1 3.1404654218614705 3.140818479897376 9.431143057033323 0 0 0
312 1 4.7091534019210535 4.7093635775242575 11.002947803390642 0 0 0
313 1 6.284635808736261 3.139027918472576 9.430804210905755 0 0 0
314 1 7.8579523018062085 4.70877838736798 11.005051824080695 0 0 0
315 1 9.430729257131828 3.139864729923311 9.430053667403824 0 0 0
316 1 11.001957366149997 4.705183439638292 11.008500939148707 0 0 0
317 1 12.576138479754848 3.1386451150722094 9.430421045017626 0 0 0
318 1 14.15139635515877 4.704189524062254 11.003645253011985 0 0 0
319 1 15.723345723432628 3.1381068787153956 9.430286434122298 0 0 0
320 1 17.297745714766663 4.70926687438204 11.003098985073716 0 0 0
321 1 18.86685232711708 3.140832376054315 9.431162276384587 0 0 0
322 1 20.438036747610745 4.71259004936253 11.003949676939548 0 0 0
323 1 22.007692660720696 6.286029403535099 9.431890462389584 -1 0 0
324 1 1.5673809873252995 7.858073036966614 11.00455523018019 0 0 0
325 1 3.1368899278060103 6.283973531808845 9.430174448243177 0 0 0
326 1 4.70330285071942 7.85472181425957 11.003318791586759 0 0 0
327 1 6.269451230103136 6.269462714324152 9.416573928531195 0 0 0
328 1 7.815170158565229 7.814971545907761 10.955489391357096 0 0 0
329 1 9.43221145961792 6.276127971863188 9.420551957414757 0 0 0
330 1 11.017856661910848 7.799973358926346 10.983204324932524 0 0 0
331 1 12.579677736696885 6.27009155396982 9.41805226517171 0 0 0
332 1 14.184174215565747 7.815438376280897 10.968454155597298 0 0 0
333 1 15.735465418673718 6.271080047006873 9.419345673653455 0 0 0
334 1 17.299878822030113 7.8557453729896904 11.004670811922125 0 0 0
335 1 18.868671334256092 6.284619021753906 9.430922242723854 0 0 0
336 1 20.437188877598306 7.858429082810858 11.004773029428964 0 0 0
337 1 22.007011987855893 9.43122921137115 9.43171132932333 -1 0 0
338 1 1.5669281020215218 11.002983911102534 11.004239948696492 0 0 0
339 1 3.1368878739181234 9.430372967508047 9.429668643551414 0 0 0
340 1 4.703139293839481 11.00089606398096 11.003563238035104 0 0 0
341 1 6.274624228419428 9.42809409704691 9.424225594446172 0 0 0
342 1 7.822179667938969 11.012017436656633 10.963001217005633 0 0 0
343 1 9.370475022951306 9.381347526636636 9.339002799249744 0 0 0
344 1 10.996715841929847 11.142949734581824 10.407103425557974 0 0 0
345 1 12.635204667230497 9.382523207269706 9.350509280242758 0 0 0
346 1 14.163183457798716 11.011551437672868 10.957577473533059 0 0 0
347 1 15.731159434707225 9.427343110208186 9.424229018100883 0 0 0
348 1 17.29367977213954 11.00366613719708 11.005146392756911 0 0 0
349 1 18.867056179040393 9.43141346129528 9.431072571459879 0 0 0
350 1 20.435728312368543 11.00348482507337 11.004736691325743 0 0 0
351 1 22.007409203157597 12.576199962350758 9.431305460792014 -1 0 0
352 1 1.5669592560228722 14.149442771563029 11.003479804751013 0 0 0
353 1 3.1353780782592118 12.576941513840984 9.429585263816582 0 0 0
354 1 4.701740321006332 14.153880593841857 11.001284337659767 0 0 0
355 1 6.264531882040244 12.585242225155149 9.420917729267344 0 0 0
356 1 7.819200926693167 14.190587356343656 10.98003876761187 0 0 0
357 1 9.323639607328428 12.673813063638347 9.33855641223783 0 0 0
358 1 11.008876588220518 14.17500785238151 10.973588708777099 0 0 0
359 1 12.678054885024679 12.662933603820582 9.340601808999109 0 0 0
360 1 14.183656016932424 14.188983140445961 10.977986158887097 0 0 0
361 1 15.747211463718747 12.58732196311096 9.415639702164638 0 0 0
362 1 17.30133517873486 14.15305373116109 11.003596290655066 0 0 0
363 1 18.870337180446032 12.57691660938299 9.429985720101682 0 0 0
364 1 20.437762806812582 14.149323389536217 11.003974159468552 0 0 0
365 1 22.007887138595454 15.722275303923483 9.43094763276621 -1 0 0
366 1 1.5688306379789563 17.29482169995752 11.003369430710098 0 0 0
367 1 3.136079882814058 15.724890672812064 9.429108494327982 0 0 0
368 1 4.709225796715383 17.29849175341468 11.002408319261484 0 0 0
369 1 6.2699189354297875 15.738615021127194 9.419439376328828 0 0 0
370 1 7.853622423711625 17.306418743150598 11.000451301493946 0 0 0
371 1 9.42659542055234 15.73961617524127 9.423733013211333 0 0 0
372 1 11.004941538956432 17.305497693095074 11.000280154552174 0 0 0
373 1 12.582498645164998 15.740688276835568 9.422675337873367 0 0 0
374 1 14.154264876741072 17.306550893895885 11.001108711246884 0 0 0
375 1 15.736824694891384 15.738234612297559 9.41967129104063 0 0 0
376 1 17.298246472179276 17.29876869248982 11.002446424652437 0 0 0
377 1 18.870008021882693 15.724322412179845 9.429898337744207 0 0 0
378 1 20.43832541800431 17.294882462139725 11.003428188568837 0 0 0
379 1 22.008514220875856 18.86643176633033 9.431102793295763 -1 0 0
380 1 1.57007953732994 20.437509639241263 11.003693864774775 0 0 0
381 1 3.14016194724692 18.86782080390089 9.43051588623894 0 0 0
382 1 4.712810048663089 20.43892876981829 11.003425521677071 0 0 0
383 1 6.282958601003962 18.872290261518103 9.428875151298083 0 0 0
384 1 7.8581338511908525 20.441113368217263 11.003295164244129 0 0 0
385 1 9.4305147956046 18.872687571256442 9.428512935067122 0 0 0
386 1 11.003706547554119 20.441318369796626 11.003151158683362 0 0 0
387 1 12.577436893394628 18.87300467676469 9.428366691341756 0 0 0
388 1 14.14958974251096 20.44087642254479 11.003399646666567 0 0 0
389 1 15.724606604870589 18.87212822221072 9.428950859300711 0 0 0
390 1 17.295090644969374 20.439039663884724 11.00335368218906 0 0 0
391 1 18.867374710693284 18.86777534652119 9.430551572697826 0 0 0
392 1 20.437701112270616 20.437565418027752 11.00369011178863 0 0 0
393 1 22.00867377200029 22.008002700360308 12.576280985765642 -1 -1 0
394 1 1.5698004997801167 1.5687564338750055 14.149085194141685 0 0 0
395 1 3.141457493634115 22.008021791257356 12.576299288420799 0 -1 0
396 1 4.712331950360607 1.5676348378986298 14.149510134706459 0 0 0
397 1 6.285500573068155 22.008751237902267 12.576329082163658 0 -1 0
398 1 7.857964325246544 1.567917253784574 14.14969371507508 0 0 0
399 1 9.431059238279474 0.0011196099998073959 12.576766818907153 0 0 0
400 1 11.002918752973555 1.5713901830934665 14.149416947077016 0 0 0
401 1 12.576051962185137 0.0002730776409303912 12.576855533148796 0 0 0
402 1 14.149741170573012 1.5666459159634671 14.15030136595994 0 0 0
403 1 15.722395694761994 22.00860269732043 12.576451015126901 0 -1 0
404 1 17.295429778755857 1.567674839064954 14.149735759617588 0 0 0
405 1 18.866399412300552 22.008161824010195 12.57633614131431 0 -1 0
406 1 20.437807136863327 1.568888407371298 14.149118888813618 0 0 0
407 1 22.008307132125957 3.1406756410460224 12.576608375071784 -1 0 0
408 1 1.567755553847217 4.7111590824173115 14.150047998438483 0 0 0
409 1 3.139809393500346 3.139579152690308 12.576701630835412 0 0 0
410 1 4.706802779048655 4.706618940965855 14.152075542865246 0 0 0
411 1 6.282721596795038 3.1376965745213288 12.576943663752967 0 0 0
412 1 7.853145790696219 4.699956461449133 14.154042986803884 0 0 0
413 1 9.429856895597258 3.1454935204510006 12.579194922357573 0 0 0
414 1 11.000989763690047 4.717956374657911 14.14947088983143 0 0 0
415 1 12.576926591329899 3.1398108352092424 12.579359173313037 0 0 0
416 1 14.155709206454523 4.69602250832826 14.156004432818191 0 0 0
417 1 15.724776363317078 3.1364937269611795 12.57713407669201 0 0 0
418 1 17.300015912061898 4.706752119058144 14.152106437739679 0 0 0
419 1 18.867366616039902 3.1396388710199004 12.576734980124257 0 0 0
420 1 20.43870275264267 4.71139188421974 14.149960481555272 0 0 0
421 1 22.007560220097012 6.284699866940577 12.576900392488914 -1 0 0
422 1 1.5655524692267127 7.856952375333073 14.150400788351462 0 0 0
423 1 3.1354811916969565 6.281885668035334 12.577154942028633 0 0 0
424 1 4.694195217969141 7.85066758262629 14.156427199960909 0 0 0
425 1 6.270913626796358 6.273238947724297 12.577477041909676 0 0 0
426 1 7.7797983747472 7.781814391121646 14.231835336300461 0 0 0
427 1 9.42039867621906 6.315944121744723 12.583864190816616 0 0 0
428 1 11.014075274326228 7.866346371343891 14.173845666390326 0 0 0
429 1 12.587260734263486 6.282267879968387 12.586144198705481 0 0 0
430 1 14.214530107205267 7.787498145920094 14.217171695603488 0 0 0
431 1 15.734801301871295 6.272092264575939 12.578178701136421 0 0 0
432 1 17.308479594167746 7.852280485968179 14.154656632656447 0 0 0
433 1 18.869928962565808 6.282468354708486 12.577162121645733 0 0 0
434 1 20.439047468235994 7.857412827737575 14.150068050244382 0 0 0
435 1 22.00668343873672 9.430781828204593 12.57704787933457 -1 0 0
436 1 1.5675563695810475 11.002859867044164 14.149520482135188 0 0 0
437 1 3.138073887236087 9.429356458604449 12.578209528083349 0 0 0
438 1 4.70671839730536 11.001014285923347 14.15269883819046 0 0 0
439 1 6.285243795538955 9.421179391731048 12.584735092924237 0 0 0
440 1 7.8396011076253 11.017593851105989 14.196090163488437 0 0 0