LAMMPS data file via write_data, version 2 Aug 2023, timestep = 69, units = metal

693 atoms
3 atom types

0 22.009546999999998 xlo xhi
0 22.009546999999998 ylo yhi
0 22.009546999999998 zlo zhi

Masses

1 183.84
2 1.008
3 4.0026

Atoms # atomic

1 1 0.0006216972829852648 22.00757057298983 0.00038275939959479474 0 -1 0
2 1 1.5717327105125098 1.5695931335945932 1.5724506223710568 0 0 0
3 1 3.1433729586881984 22.007755785214254 0.0005631814407399065 0 -1 0
4 1 4.715384902391479 1.5694258163217458 1.5721688214108611 0 0 0
5 1 6.287982614230216 22.007846092867613 0.0002475799187283592 0 -1 0
6 1 7.860395654801421 1.5693880899410502 1.5717690862220801 0 0 0
7 1 9.43323020132827 22.007781181540263 22.00947276309943 0 -1 -1
8 1 11.005844059780198 1.569391630368624 1.5715266292326933 0 0 0
9 1 12.578523662412234 22.007664869529396 22.009284419560004 0 -1 -1
10 1 14.151181409351897 1.5693328039410293 1.5715715783268744 0 0 0
11 1 15.723390703668162 22.00752368649627 22.009312186495006 0 -1 -1
12 1 17.29589330527441 1.569322665330383 1.571887138490996 0 0 0
13 1 18.867527551874907 22.007442829888134 0.00010634087219166449 0 -1 0
14 1 20.439407712632857 1.5694918489593286 1.5722967977028603 0 0 0
15 1 0.0008039899882977991 3.1406425042356645 0.0016940082839505446 0 0 0
16 1 1.5715018911497083 4.713181884310808 1.5730436502220233 0 0 0
17 1 3.142243660304957 3.139662055124358 0.002354235606437313 0 0 0
18 1 4.713768647990573 4.711692006595653 1.5729192292551288 0 0 0
19 1 6.286993479852371 3.1393712450068745 0.0019754431824168094 0 0 0
20 1 7.859330761533517 4.711399642700671 1.5719912267666125 0 0 0
21 1 9.43279736762334 3.139392857750622 0.0015368385638683546 0 0 0
22 1 11.00575296897754 4.7114334754304235 1.5715348951972679 0 0 0
23 1 12.578799786788498 3.1393942919418087 0.0014274682316469188 0 0 0
24 1 14.15215929542957 4.711462467098738 1.5717368303024883 0 0 0
25 1 15.724385415725449 3.139370712282632 0.0016409665523022822 0 0 0
26 1 17.29769455439871 4.711699777279553 1.5725203769231637 0 0 0
27 1 18.869041767167285 3.1395285066850938 0.0021424003513882766 0 0 0
28 1 20.43979317119906 4.713224724541448 1.5729090031086201 0 0 0
29 1 0.0008297779222207209 6.285427235910727 0.0018924449776384228 0 0 0
30 1 1.5713411902135397 7.858310423452261 1.5727262972062523 0 0 0
31 1 3.1416316748313187 6.284494519036469 0.0027352909554670406 0 0 0
32 1 4.713180738307029 7.857405780456075 1.572439715798292 0 0 0
33 1 6.28462878731944 6.282473993068044 0.004373285331860631 0 0 0
34 1 7.857876932758553 7.856373179476786 1.5707772694213273 0 0 0
35 1 9.432021076200504 6.282564033399346 0.0027584234254030057 0 0 0
36 1 11.005776628857015 7.856280587843998 1.5688037573097173 0 0 0
37 1 12.579351882646455 6.2826132229351375 0.0025303844056424373 0 0 0
38 1 14.15359429349566 7.856545198784536 1.570050970989487 0 0 0
39 1 15.726639431995467 6.282708828594184 0.003885119961069668 0 0 0
40 1 17.29805007871282 7.857737836716316 1.57192232155887 0 0 0
41 1 18.869555072166065 6.2847104886753 0.0024357459354474634 0 0 0
42 1 20.43986777875721 7.858444332744408 1.5725507471096531 0 0 0
43 1 0.0007234900091532897 9.43110827162253 0.0012760813425117528 0 0 0
44 1 1.5712243539625652 11.00403734996069 1.571880750712582 0 0 0
45 1 3.1415231233036316 9.430779491200292 0.0019763253355077324 0 0 0
46 1 4.712930218737195 11.00418551575359 1.5711465216169285 0 0 0
47 1 6.284281676863762 9.430155634468342 0.0031126662788787856 0 0 0
48 1 7.857501535784385 11.004766553130377 1.5684111003189218 0 0 0
49 1 9.431384479488358 9.429696287303207 0.0023760609278923057 0 0 0
50 1 11.005780569636778 11.005191867814686 1.5648217993428573 0 0 0
51 1 12.579779132341603 9.429851403266596 0.001561916535479081 0 0 0
52 1 14.15380345264832 11.004933057192103 1.5674374650195761 0 0 0
53 1 15.7265498309206 9.430566909879937 0.002016254963258148 0 0 0
54 1 17.2980647451122 11.00439962608441 1.5703625108530261 0 0 0
55 1 18.86936991651007 9.431034464961748 0.0014287060986610247 0 0 0
56 1 20.43980478697768 11.004105972867944 1.571606792655089 0 0 0
57 1 0.0005479649686507064 12.57679766199922 0.00030196949911794925 0 0 0
58 1 1.5711042398202428 14.14967014269242 1.5710403255498528 0 0 0
59 1 3.14153207401726 12.577208957712259 0.0008608706871542968 0 0 0
60 1 4.712862433267693 14.151014017218145 1.5698783584332112 0 0 0
61 1 6.284451086735265 12.578146781460799 0.001235032724736226 0 0 0
62 1 7.857720727134019 14.15278323130272 1.5671486176045049 0 0 0
63 1 9.43147358480433 12.578752906841009 22.009516421981168 0 0 -1
64 1 11.00592662918397 14.152900304151302 1.5661875818095932 0 0 0
65 1 12.579727835112621 12.578498356047765 22.007965020388394 0 0 -1
66 1 14.153591052265433 14.15245261499199 1.5657631051806449 0 0 0
67 1 15.726028151145218 12.577866916277962 22.00883028429964 0 0 -1
68 1 17.29795492003863 14.15068876928883 1.5688230550544335 0 0 0
69 1 18.869023884675833 12.577138317853475 22.00951219729059 0 0 -1
70 1 20.439657971932405 14.149580915027379 1.570666133919964 0 0 0
71 1 0.0003829486345102548 15.721781479729497 22.009057824901355 0 0 -1
72 1 1.5711560510426266 17.29450104124169 1.5706611838207274 0 0 0
73 1 3.14169773080606 15.72286090494261 22.00953440707428 0 0 -1
74 1 4.713502564329795 17.29637547314943 1.5695967246529556 0 0 0
75 1 6.285169910407089 15.724734586827458 9.446336203922101e-05 0 0 0
76 1 7.859599665451943 17.296534234329062 1.5689425478217516 0 0 0
77 1 9.432466624262208 15.724414307765498 22.008117356862577 0 0 -1
78 1 11.00593327475628 17.296416697771974 1.5683351520540123 0 0 0
79 1 12.579207847617539 15.724016662113412 22.00712375650003 0 0 -1
80 1 14.15190833925785 17.29617259047849 1.568117066526908 0 0 0
81 1 15.725379836248914 15.723751729967193 22.007494202618158 0 0 -1
82 1 17.297398570749305 17.29587768300284 1.5684476784744517 0 0 0
83 1 18.868555585106275 15.722330778572564 22.008414487423295 0 0 -1
84 1 20.4394309947137 17.294279398519784 1.5702812492820521 0 0 0
85 1 0.0003904008055966987 18.86556035785959 22.009029252906636 0 0 -1
86 1 1.5716526129162958 20.437515525125566 1.5712590270487992 0 0 0
87 1 3.142435045186071 18.866680387899127 22.009337609873135 0 0 -1
88 1 4.715433296350439 20.437900321600335 1.5709521857515565 0 0 0
89 1 6.287414629254611 18.866926695154653 22.008909603233654 0 0 -1
90 1 7.860498222092305 20.437946547597225 1.5705510974364145 0 0 0
91 1 9.433120011842977 18.866738960073548 22.008297998604704 0 0 -1
92 1 11.005895245313008 20.43787415174194 1.5702134314822427 0 0 0
93 1 12.578679654676268 18.866471632836635 22.007865859754943 0 0 -1
94 1 14.151087616907562 20.437731648376545 1.5701626170161198 0 0 0
95 1 15.723694404811166 18.866208108311465 22.007843496784933 0 0 -1
96 1 17.29568130178003 20.437569263833165 1.5703957119324645 0 0 0
97 1 18.86796148223945 18.866033357982698 22.008346312484296 0 0 -1
98 1 20.439124559713065 20.437339802034103 1.5709378997855061 0 0 0
99 1 0.00075388568813959 22.008612177561737 3.143357075325245 0 -1 0
100 1 1.5718351591591004 1.570296915255493 4.715158291423876 0 0 0
101 1 3.143459913692875 22.00889140683696 3.143010919883627 0 -1 0
102 1 4.715119771722789 1.5700449439533288 4.714438123871043 0 0 0
103 1 6.287968068701993 22.008971775192304 3.1426555172691506 0 -1 0
104 1 7.860313347496516 1.5700504592204405 4.714087555223555 0 0 0
105 1 9.433177727918995 22.00901183938678 3.14230085540566 0 -1 0
106 1 11.005838908617266 1.5701967660862624 4.713814330791778 0 0 0
107 1 12.578500231898925 22.008980720606395 3.142198582439416 0 -1 0
108 1 14.151296017272585 1.5701098463798973 4.713993144026451 0 0 0
109 1 15.723498164921065 22.008887223431707 3.1424273116019834 0 -1 0
110 1 17.29625012072354 1.5701001372974421 4.714414561547917 0 0 0
111 1 18.867716616026133 22.00881164547867 3.1427994782892954 0 -1 0
112 1 20.439580726726867 1.5702479218088918 4.715066510723955 0 0 0
113 1 0.0009262577549759288 3.141730003410919 3.1439861736634 0 0 0
114 1 1.5715673235973668 4.713630376451807 4.715266788115454 0 0 0
115 1 3.142704734515192 3.14092892615743 3.1434897282708265 0 0 0
116 1 4.712858209649794 4.711261323190484 4.712630292953663 0 0 0
117 1 6.287153543435794 3.1404794720021774 3.142788071651789 0 0 0
118 1 7.85869655421591 4.7107904940092045 4.711480527393175 0 0 0
119 1 9.4328260666055 3.140508074674829 3.142324584818913 0 0 0
120 1 11.005744585109811 4.711159346082266 4.710879682041226 0 0 0
121 1 12.578769442567047 3.1405431914346207 3.1422378367910895 0 0 0
122 1 14.152792636132235 4.710942288539797 4.711401434773413 0 0 0
123 1 15.724308109683845 3.1405187373130707 3.142640958115258 0 0 0
124 1 17.29909446885595 4.711055306331509 4.712012364628882 0 0 0
125 1 18.868782723545056 3.1408434878285973 3.143219394921032 0 0 0
126 1 20.44022498771581 4.713634299724782 4.715108817215825 0 0 0
127 1 0.0009553245211696569 6.286116225149002 3.144033761857053 0 0 0
128 1 1.5714725822968438 7.85854214632225 4.714943825289387 0 0 0
129 1 3.1422341211250804 6.285345667247078 3.143457220979285 0 0 0
130 1 4.712397337364192 7.857197279072584 4.712081351959199 0 0 0
131 1 6.28502759731322 6.283412133771431 3.1408269683645273 0 0 0
132 1 7.855392155459473 7.854410325242166 4.704259763460046 0 0 0
133 1 9.431801438513968 6.283290652424475 3.1390928371495033 0 0 0
134 1 11.005752230343708 7.854957263978869 4.7006454894845815 0 0 0
135 1 12.579737712711815 6.283327709787843 3.1388592422254336 0 0 0
136 1 14.156821625332201 7.854205353369063 4.702792535653012 0 0 0
137 1 15.726750741018352 6.283368667375133 3.140064173749997 0 0 0
138 1 17.299365317983476 7.857631122852014 4.71169856194963 0 0 0
139 1 18.869268439705035 6.285512348620081 3.143162204730402 0 0 0
140 1 20.440325225943784 7.858668916703541 4.7147733651770505 0 0 0
141 1 0.0009313045640344703 9.4313152856934 3.1433878991898796 0 0 0
142 1 1.5712595679909658 11.004020715970045 4.714056942452514 0 0 0
143 1 3.141953350282997 9.431012158070198 3.1426266965198466 0 0 0
144 1 4.71178602798298 11.004155376271722 4.710522245277933 0 0 0
145 1 6.284469149272124 9.430537648690043 3.1392745048356288 0 0 0
146 1 7.854491504311946 11.006028954000861 4.700465816283182 0 0 0
147 1 9.430845452227777 9.430437417970309 3.1324581232622464 0 0 0
148 1 11.005917580264118 11.00833422479573 4.6875686242680255 0 0 0
149 1 12.580983877134086 9.430632060657704 3.1317169758432577 0 0 0
150 1 14.157521774959049 11.006504191555502 4.700875918397464 0 0 0
151 1 15.727044074803075 9.430964301813402 3.1387855398254807 0 0 0
152 1 17.299897811678083 11.004490529044332 4.710417361061767 0 0 0
153 1 18.86943964926811 9.43127155083279 3.1422905215412 0 0 0
154 1 20.440481847452226 11.004106351177503 4.713917911838591 0 0 0
155 1 0.0008433049742970324 12.576845966510104 3.142568427175448 0 0 0
156 1 1.5707890028545624 14.149959854395073 4.713365639654617 0 0 0
157 1 3.1416096490219614 12.577277131282367 3.1415984364326017 0 0 0
158 1 4.710409573421604 14.152562926383757 4.708972941910977 0 0 0
159 1 6.283688912993363 12.578974254738048 3.137206550935959 0 0 0
160 1 7.852632753853539 14.158630742269603 4.698458343237256 0 0 0
161 1 9.430468880736209 12.581309520788677 3.1307008042894076 0 0 0
162 1 11.005989703299493 14.157680529634858 4.7012828204281725 0 0 0
163 1 12.581341522693249 12.581254605611452 3.1303295425542546 0 0 0
164 1 14.159355427394809 14.15886929889771 4.6977997370249 0 0 0
165 1 15.727675560123664 12.578955192501216 3.1367136361064323 0 0 0
166 1 17.300950094832178 14.152248773061341 4.708917815804825 0 0 0
167 1 18.869628927102795 12.5772950514287 3.1411926720268664 0 0 0
168 1 20.440647393162916 14.14990118982295 4.713215665752415 0 0 0
169 1 0.0007105435625552847 15.722177309701035 3.142029512061659 0 0 0
170 1 1.5706315872601813 17.295640916987136 4.713087084417177 0 0 0
171 1 3.141354752093997 15.723464018124334 3.1408161471576475 0 0 0
172 1 4.710762096980229 17.299692406639398 4.709069836614205 0 0 0
173 1 6.28372984962537 15.72674457123092 3.1365317699249857 0 0 0
174 1 7.858561589192644 17.299575483724585 4.709224231494059 0 0 0
175 1 9.432058639767199 15.726639808337184 3.1366144109885052 0 0 0
176 1 11.005849481352481 17.299420067348674 4.709005452542143 0 0 0
177 1 12.579732013123445 15.726568505142401 3.136241261782388 0 0 0
178 1 14.153028844669194 17.299550637323957 4.708944108940816 0 0 0
179 1 15.727731639089647 15.726592706787129 3.1355454764727675 0 0 0
180 1 17.30084393834408 17.299735211875475 4.708437824941703 0 0 0
181 1 18.86963864166463 15.72319193974935 3.1403624722668235 0 0 0
182 1 20.440569602751935 17.29552588745267 4.712917982974704 0 0 0
183 1 0.0006812690946204549 18.866492431517386 3.142157402438278 0 0 0
184 1 1.5716634699314571 20.43827734075004 4.714426165756683 0 0 0
185 1 3.1421618596816447 18.86778336716782 3.141329919649849 0 0 0
186 1 4.71478610768585 20.439435426824247 4.713434856905718 0 0 0
187 1 6.287058236447384 18.86831000090842 3.140765663908113 0 0 0
188 1 7.860276175094603 20.439473138548735 4.71316231584797 0 0 0
189 1 9.43293539598827 18.868313894284967 3.1403581442660817 0 0 0
190 1 11.005846861626425 20.439486940972564 4.712862002779607 0 0 0
191 1 12.57878675195973 18.86823746188033 3.140156119568456 0 0 0
192 1 14.151324454190968 20.439451536555303 4.713004326055476 0 0 0
193 1 15.724354389406061 18.86810348188749 3.140260415183384 0 0 0
194 1 17.2965887880978 20.439411084486718 4.713221740236256 0 0 0
195 1 18.86891520288394 18.867626360157384 3.1408173726255955 0 0 0
196 1 20.439499109507 20.43819180118897 4.714332603424311 0 0 0
197 1 0.0008987515230834493 22.00906545435651 6.2871628390115095 0 -1 0
198 1 1.572026723722169 1.5704899368332927 7.859287352806843 0 0 0
199 1 3.1432546386203732 22.009360271297975 6.28655257021878 0 -1 0
200 1 4.714890627547979 1.5697968969273743 7.858443013386583 0 0 0
201 1 6.287570432577381 0.00032688356236041196 6.285952528059214 0 0 0
202 1 7.86026658816382 1.5698340155059345 7.858168748586973 0 0 0
203 1 9.43316639291051 0.00035210735228250763 6.285702145213121 0 0 0
204 1 11.005990780751091 1.5702283542346553 7.857940010537066 0 0 0
205 1 12.578548430768947 0.0004325262097858763 6.28564199818689 0 0 0
206 1 14.151376380981816 1.570245372177941 7.858208596551104 0 0 0
207 1 15.72387990832903 0.00044165221746616666 6.2859601186498795 0 0 0
208 1 17.296547027977052 1.5699658283180433 7.858546157854917 0 0 0
209 1 18.86810067283039 22.009351238581935 6.286516989121043 0 -1 0
210 1 20.439533506863448 1.5704574395827098 7.859265875613178 0 0 0
211 1 0.0011653638316322702 3.1418733089608524 6.287168432659021 0 0 0
212 1 1.571502287429686 4.713445767905802 7.859016227749132 0 0 0
213 1 3.1422747769042054 3.140776645126459 6.2860353800736855 0 0 0
214 1 4.710765767611477 4.708978510726157 7.854859735969711 0 0 0
215 1 6.286361985194302 3.139523543281476 6.284853836286357 0 0 0
216 1 7.857060924212515 4.706607337322926 7.853555673640285 0 0 0
217 1 9.432787595750296 3.140017816699367 6.284547386599578 0 0 0
218 1 11.006018619829458 4.708692937227405 7.853351205466411 0 0 0
219 1 12.578957524221815 3.1401622454620006 6.284399810955593 0 0 0
220 1 14.153512224247018 4.7079412795242925 7.854391602380508 0 0 0
221 1 15.724974010734604 3.1398675409737833 6.285065553095144 0 0 0
222 1 17.301790999696212 4.708452634477612 7.853964077037826 0 0 0
223 1 18.869572412041265 3.140618475785487 6.2857643169700985 0 0 0
224 1 20.441047357121825 4.713208738324951 7.858736495437991 0 0 0
225 1 0.001448068964661739 6.286237676602086 6.287175580816204 0 0 0
226 1 1.5718589769596982 7.858675221567968 7.8590925630340145 0 0 0
227 1 3.1415216356228055 6.285090659949457 6.285759764990846 0 0 0
228 1 4.710261626686983 7.856134135044007 7.8552883975363175 0 0 0
229 1 6.280747028768721 6.279058005795031 6.277846044736451 0 0 0
230 1 7.843553899035106 7.839942995342823 7.835274257987977 0 0 0
231 1 9.43048934262867 6.280121819042946 6.276047572780506 0 0 0
232 1 11.004629911428998 7.849539870675156 7.830077416177314 0 0 0
233 1 12.580512255999796 6.2803170843956115 6.275906819006234 0 0 0
234 1 14.17048262345896 7.838047306936272 7.8302843458645635 0 0 0
235 1 15.732049382655676 6.2783669347957325 6.27620737290777 0 0 0
236 1 17.30279407797421 7.856260896815697 7.854404193490642 0 0 0
237 1 18.87087058064957 6.285099305240806 6.285312694677832 0 0 0
238 1 20.441616958989055 7.858419714750685 7.8586095525996225 0 0 0
239 1 0.00139829497135876 9.431305416773563 6.286603801481987 0 0 0
240 1 1.5714325077603257 11.003795249968334 7.858163395462836 0 0 0
241 1 3.141443222378997 9.430826671587305 6.28497131305071 0 0 0
242 1 4.709818781597279 11.003520149228345 7.853231323210108 0 0 0
243 1 6.2814751711716355 9.42889712251153 6.277266361960276 0 0 0
244 1 7.84744014686659 11.004640286038976 7.830923280112484 0 0 0
245 1 9.426363087420917 9.427336427374751 6.254322884228888 0 0 0
246 1 11.007355258866028 11.020899764087352 7.776764575588017 0 0 0
247 1 12.586214832694552 9.427338664396695 6.251564067311331 0 0 0
248 1 14.163156132874605 11.005973560905346 7.836332253208226 0 0 0
249 1 15.730347983104389 9.4301214231698 6.277375481017792 0 0 0
250 1 17.302222851424766 11.004216336899661 7.85395463224364 0 0 0
251 1 18.87071531044898 9.43118996835809 6.284730576485719 0 0 0
252 1 20.441564904947054 11.003853868608996 7.8580103767766225 0 0 0
253 1 0.0012693834738562047 12.5767682416157 6.285914127561143 0 0 0
254 1 1.5699845538109487 14.150154258622823 7.85765517387019 0 0 0
255 1 3.140189582618423 12.577376354920828 6.283884813747046 0 0 0
256 1 4.703067396779266 14.156566643533072 7.850442611047673 0 0 0
257 1 6.27783939595762 12.580927223850106 6.273666864070726 0 0 0
258 1 7.824772007481694 14.185934089951806 7.817804397555916 0 0 0
259 1 9.421288206203611 12.59162600789902 6.251725668138298 0 0 0
260 1 11.004906086797881 14.16088858922282 7.8419751668928175 0 0 0
261 1 12.591278290748262 12.59221774270026 6.251780168993174 0 0 0
262 1 14.189319101529094 14.188793505382918 7.8159725069172765 0 0 0
263 1 15.733637588118741 12.580575800447754 6.2748680874841325 0 0 0
264 1 17.308320148637844 14.15552251389041 7.851288712640974 0 0 0
265 1 18.871733730175187 12.577358930089039 6.283835098172496 0 0 0
266 1 20.442345685913146 14.150080799169487 7.8575444239154 0 0 0
267 1 0.001042126419769009 15.722779005265242 6.285489563207382 0 0 0
268 1 1.570831219919112 17.295521164221913 7.857985390697581 0 0 0
269 1 3.138612417491543 15.72547456007075 6.282759445554419 0 0 0
270 1 4.709605852394531 17.301026325832762 7.853832555333625 0 0 0
271 1 6.274444500544006 15.736474200490454 6.270861388027869 0 0 0
272 1 7.855680249043877 17.305975072024946 7.851944283566062 0 0 0
273 1 9.431138146095138 15.731993707066687 6.275782474196934 0 0 0
274 1 11.005729806651384 17.301519698306265 7.8529401845999125 0 0 0
275 1 12.580280852800426 15.7321377979032 6.2758126356732316 0 0 0
276 1 14.155655308039995 17.306166836925073 7.852027333706761 0 0 0
277 1 15.73802739554193 15.737176597056768 6.269930314930584 0 0 0
278 1 17.302111563641173 17.30097242375234 7.853670040360515 0 0 0
279 1 18.87292593194932 15.72516384841286 6.2827296033262625 0 0 0
280 1 20.441135374605224 17.295599975069898 7.857768792062576 0 0 0
281 1 0.0009461873185057824 18.866899428514344 6.28618726875899 0 0 0
282 1 1.5718227810255583 20.438184570379743 7.85889296332986 0 0 0
283 1 3.141690957119873 18.868644304189186 6.28490777736189 0 0 0
284 1 4.714415834306246 20.43996547013814 7.857870607033415 0 0 0
285 1 6.285443809959291 18.871519004950805 6.283109277820369 0 0 0
286 1 7.859815684149025 20.441246878036775 7.857337271319308 0 0 0
287 1 9.432744653073586 18.870602618527826 6.283224197832345 0 0 0
288 1 11.005848783300126 20.440628623119196 7.857156380015397 0 0 0
289 1 12.578839451117934 18.870654559596066 6.283150027166224 0 0 0
290 1 14.15166500939226 20.441285219355912 7.857360436684806 0 0 0
291 1 15.726094204674425 18.871583579801072 6.282946278875507 0 0 0
292 1 17.29696209241064 20.44006410357604 7.85787273274897 0 0 0
293 1 18.86970453301412 18.868555245594198 6.284802933024462 0 0 0
294 1 20.439574456613 20.438194739710394 7.858859287498652 0 0 0
295 1 0.0009311361217266912 22.00877292240418 9.431534501740826 0 -1 0
296 1 1.571990883037076 1.5698780192549897 11.003897616811567 0 0 0
297 1 3.1433070335167446 22.00904472644216 9.431254250614517 0 -1 0
298 1 4.714671812107943 1.5691505248143807 11.003700311140882 0 0 0
299 1 6.287593169101924 0.00023588790580797106 9.43106788507358 0 0 0
300 1 7.860578726628496 1.569418325708609 11.004440914917986 0 0 0
301 1 9.43336585636676 0.0009463439690677337 9.430961662312116 0 0 0
302 1 11.006520105400572 1.570865312790186 11.004978496766201 0 0 0
303 1 12.578526943180469 0.0011576854747116622 9.430888996334316 0 0 0
304 1 14.150746473594637 1.571092095505475 11.004751075955948 0 0 0
305 1 15.723732301562752 0.0006891532548303952 9.43122819332896 0 0 0
306 1 17.29678428815652 1.5693133695474657 11.003738880743732 0 0 0
307 1 18.86804149523624 22.00902752263059 9.431294632208118 0 -1 0
308 1 20.43962537942827 1.569809720896956 11.003888273120884 0 0 0
309 1 0.0012431449237043561 3.141608253309907 9.431563260504227 0 0 0
310 1 1.5715489126863063 4.712589552896943 11.00390459322034 0 0 0
311 1 3.1427269822466983 3.1408269645874336 9.431129642275229 0 0 0
312 1 4.711787028289792 4.70924810257486 11.003044953754895 0 0 0
313 1 6.2862342737218375 3.138078900687021 9.43025105519055 0 0 0
314 1 7.858175602126375 4.704186644442903 11.003610382496138 0 0 0
315 1 9.433432338134619 3.1385971792249925 9.430343211679938 0 0 0
316 1 11.007643297022474 4.705125367000274 11.008454733533547 0 0 0
317 1 12.578870917403776 3.1397610587594036 9.42994447739076 0 0 0
318 1 14.151717586520771 4.708619958585773 11.004904525675236 0 0 0
319 1 15.72499475164627 3.1389049729088945 9.430690347450193 0 0 0
320 1 17.30052860123689 4.709262469872918 11.002829314131318 0 0 0
321 1 18.86915956569209 3.140748500500424 9.431064192065717 0 0 0
322 1 20.441183683181542 4.712399045136988 11.00379692512239 0 0 0
323 1 0.0019345133867767633 6.286006342099879 9.431808996168783 0 0 0
324 1 1.5723446516923583 7.858437734974581 11.004724861923805 0 0 0
325 1 3.140849749364711 6.284589599322086 9.43083573752489 0 0 0
326 1 4.709467541817678 7.855715845048364 11.004576234764883 0 0 0
327 1 6.273888703888354 6.270909578420123 9.419062976627343 0 0 0
328 1 7.824816058466915 7.814966040210451 10.967677060722032 0 0 0
329 1 9.429836867550772 6.269913354717189 9.417754506445045 0 0 0
330 1 10.992092069940021 7.799093683012339 10.982402432269629 0 0 0
331 1 12.57758257904518 6.275872880014887 9.420150310707841 0 0 0
332 1 14.195164531738556 7.814336280424531 10.95449861043136 0 0 0
333 1 15.740478324362442 6.269148458622697 9.41616063073653 0 0 0
334 1 17.306566730153765 7.854593636457317 11.003110569009847 0 0 0
335 1 18.872841268861112 6.2838916411122225 9.430013101283171 0 0 0
336 1 20.44228412366046 7.858049947325747 11.004453225561992 0 0 0
337 1 0.002590337684022948 9.431238289628126 9.431633309216355 0 0 0
338 1 1.5737632018919407 11.003533789159622 11.004709439814372 0 0 0
339 1 3.142447707367414 9.431448815608007 9.431013086158407 0 0 0
340 1 4.71565771889582 11.003747329966796 11.005113214560787 0 0 0
341 1 6.278308278179362 9.427401494843867 9.424151163192871 0 0 0
342 1 7.845971225445009 11.01183730357047 10.95755512016772 0 0 0
343 1 9.374206745746593 9.38233563727708 9.350541115351396 0 0 0
344 1 11.01242768928431 11.144311967704173 10.403806539394374 0 0 0
345 1 12.639401358823017 9.381273151801208 9.338619745515096 0 0 0
346 1 14.188044062979241 11.011937765196329 10.962435691375681 0 0 0
347 1 15.7353485240845 9.427948191531897 9.423777457770772 0 0 0
348 1 17.30663912036446 11.000873746793127 11.003401592213768 0 0 0
349 1 18.872852167101932 9.430338437022144 9.429503405909623 0 0 0
350 1 20.442679626598682 11.002996777296318 11.004168394000063 0 0 0
351 1 0.002134137079181322 12.576230924139587 9.431255927208891 0 0 0
352 1 1.5716961843884096 14.149388898181538 11.003974169261024 0 0 0
353 1 3.1391135186693995 12.576983106455017 9.429950250462088 0 0 0
354 1 4.707992178598675 14.15318441719179 11.003586779149023 0 0 0
355 1 6.262114267627971 12.587461268009827 9.415572210828579 0 0 0
356 1 7.825484742618082 14.18922367802323 10.97803067257761 0 0 0
357 1 9.33054468053876 12.663666252321391 9.340194215186775 0 0 0
358 1 11.000785416306288 14.174940067534104 10.973415734476456 0 0 0
359 1 12.686872063175901 12.674174642953593 9.338016035011098 0 0 0
360 1 14.190526695527524 14.190667806381173 10.9799788929236 0 0 0
361 1 15.745210030241331 12.585281295534658 9.420646509366893 0 0 0
362 1 17.30781779590147 14.153824241608593 11.001230577981447 0 0 0
363 1 18.874252893355607 12.576959574071573 9.429469418169557 0 0 0
364 1 20.442555567376807 14.149456597470548 11.003442009970401 0 0 0
365 1 0.0016235305192746625 15.72230954643011 9.430932507078225 0 0 0
366 1 1.5711552811123728 17.294951957516282 11.003441684475993 0 0 0
367 1 3.1394349913249897 15.724420235866488 9.429886219479815 0 0 0
368 1 4.711200045172563 17.29886811465401 11.002470388638775 0 0 0
369 1 6.272564216694625 15.738362913472596 9.419645169685475 0 0 0
370 1 7.855215298878577 17.306592920643357 11.001140735227889 0 0 0
371 1 9.426990204308764 15.740696769156393 9.422691736340374 0 0 0
372 1 11.004589944634466 17.305426380054023 11.000284928993375 0 0 0
373 1 12.583031047611316 15.739587138705854 9.42365215971295 0 0 0
374 1 14.15590318937978 17.306393285090603 11.00043470024791 0 0 0
375 1 15.739695155531708 15.73863969963187 9.419344474312734 0 0 0
376 1 17.300293590506563 17.2984664639491 11.00238012186051 0 0 0
377 1 18.87347175257074 15.724885712051423 9.42907399160097 0 0 0
378 1 20.44067186487123 17.29483596591809 11.003351118040984 0 0 0
379 1 0.0010023269898487115 18.866459229209003 9.43110454365298 0 0 0
380 1 1.5718264681014658 20.437604894639847 11.00369911685089 0 0 0
381 1 3.142129507275941 18.86783586321749 9.43056691456368 0 0 0
382 1 4.7144379403715 20.43908735096905 11.003374358726186 0 0 0
383 1 6.284900680432417 18.872174950475934 9.42897067285671 0 0 0
384 1 7.85995293677887 20.440891819990767 11.003424433263746 0 0 0
385 1 9.432103858208892 18.872978042665302 9.428386563160853 0 0 0
386 1 11.005816696074767 20.441286705996106 11.003158612846152 0 0 0
387 1 12.579005953488517 18.872635238620664 9.428511076312896 0 0 0
388 1 14.151383047689317 20.441076051402078 11.00327980763462 0 0 0
389 1 15.7265677499317 18.872258875333085 9.428853796642501 0 0 0
390 1 17.296706155747554 20.438889501724127 11.003396881840304 0 0 0
391 1 18.869359260848583 18.867797853600624 9.430502404287937 0 0 0
392 1 20.439439928879107 20.4375039356974 11.003673655523574 0 0 0
393 1 0.0008579350323150169 22.008022845821664 12.576248812673134 0 -1 0
394 1 1.5717339081993218 1.568919003290744 14.14908775732336 0 0 0
395 1 3.143144701179176 22.00820786352868 12.576331383578317 0 -1 0
396 1 4.714110873790805 1.5677103417928135 14.149726786333309 0 0 0
397 1 6.287152459982787 22.00864867175582 12.576452110144233 0 -1 0
398 1 7.859809822522798 1.5667006195277124 14.1502674267625 0 0 0
399 1 9.433485467885538 0.000315394805546001 12.576844498012232 0 0 0
400 1 11.00660551876513 1.5714787631416307 14.149354036668909 0 0 0
401 1 12.578460683152777 0.0011065280785934257 12.576742888932754 0 0 0
402 1 14.151569532873078 1.5679099182003189 14.149637743034143 0 0 0
403 1 15.72402573859205 22.00871011590872 12.576284342253874 0 -1 0
404 1 17.297218325920348 1.567593266994781 14.149449090938399 0 0 0
405 1 18.868067666846056 22.007998436874693 12.57625322853241 0 -1 0
406 1 20.43974775523384 1.5687543675179934 14.149029831203208 0 0 0
407 1 0.0012748797757005856 3.1406781971596587 12.57656287272414 0 0 0
408 1 1.570826016929253 4.71138977159358 14.149942680069454 0 0 0
409 1 3.1421897204759017 3.1396561597607753 12.576708947264258 0 0 0
410 1 4.7094549922672595 4.706739521482487 14.152110570487109 0 0 0
411 1 6.284756970938572 3.13652332500571 12.577098002042467 0 0 0
412 1 7.853789914037342 4.696013833170496 14.155992628113218 0 0 0
413 1 9.432628053985555 3.139949965104955 12.579323002658988 0 0 0
414 1 11.008526914963086 4.718164630393177 14.149334278763611 0 0 0
415 1 12.579723297694517 3.1455107330665486 12.57914235021624 0 0 0
416 1 14.156505516724632 4.699852880264703 14.15402873468406 0 0 0
417 1 15.726885220707226 3.1376317535229155 12.576871634901021 0 0 0
418 1 17.302853805583364 4.706535909926176 14.152004824704667 0 0 0
419 1 18.869787543047476 3.1395409456031977 12.576622939309555 0 0 0
420 1 20.44184072714892 4.711137176499319 14.14998606958381 0 0 0
421 1 0.002030150006259436 6.284695269404627 12.576845736304646 0 0 0
422 1 1.5704074584224454 7.8574424016811015 14.150080226993511 0 0 0
423 1 3.1395454146394712 6.282458785648885 12.57715055664817 0 0 0
424 1 4.700707979946685 7.8522552873291085 14.154788579055964 0 0 0
425 1 6.274550624374303 6.272066722698204 12.578150498317404 0 0 0
426 1 7.794015273315571 7.78673892066195 14.218175768040608 0 0 0
427 1 9.422148803925845 6.2828908565531805 12.586108940747836 0 0 0
428 1 10.995467122722047 7.866569411685365 14.174030893779268 0 0 0
429 1 12.589512880468819 6.316001521223567 12.58385977403887 0 0 0
430 1 14.230465550647086 7.781156150643373 14.232511121033072 0 0 0
431 1 15.73887183931713 6.2731141531018375 12.57735192997922 0 0 0
432 1 17.315588317278763 7.850543994593309 14.15643349434143 0 0 0
433 1 18.87421020413734 6.281829421639913 12.577063788502137 0 0 0
434 1 20.44405571263999 7.856942451638695 14.15035694005012 0 0 0
435 1 0.002865009063973808 9.430809318057692 12.57701378481726 0 0 0
436 1 1.5724600980923202 11.00351275834406 14.149319692591414 0 0 0
437 1 3.1446104115280242 9.430647020418867 12.577850973314854 0 0 0
438 1 4.711582139283328 11.00423401268967 14.15242562005975 0 0 0
439 1 6.293615793518843 9.42585416661775 12.583831588153272 0 0 0
440 1 7.833616262956517 11.017576255226713 14.211996233743443 0 0 0