LAMMPS data file via write_data, version 2 Aug 2023, timestep = 40, units = metal

694 atoms
3 atom types

0 22.009546999999998 xlo xhi
0 22.009546999999998 ylo yhi
0 22.009546999999998 zlo zhi

Masses

1 183.84
2 1.008
3 4.0026

Atoms # atomic

1 1 0.0016361325027838274 0.0007317681697987121 0.0017389346611347998 0 0 0
2 1 1.5722178534922306 1.571411856285263 1.5742343102538061 0 0 0
3 1 3.1439192152024926 22.00898904905762 0.0033266464500356953 0 -1 0
4 1 4.715841381030723 1.5706130295631886 1.575236228879244 0 0 0
5 1 6.288450997045229 22.00855269135187 0.003725130958726218 0 -1 0
6 1 7.861083219371286 1.5707766521467663 1.5751500854321396 0 0 0
7 1 9.434062660083876 22.0090782717038 0.0030476510140648332 0 -1 0
8 1 11.007045166584486 1.5716058711435203 1.5742030990030553 0 0 0
9 1 12.580041664306945 0.0005301265133200876 0.0018870342891540682 0 0 0
10 1 14.153049285269663 1.5724889949891496 1.572988447915474 0 0 0
11 1 15.72563296872868 0.001413300348028444 0.0008856617285092633 0 0 0
12 1 17.298317572181922 1.5729039984286421 1.5721589139231025 0 0 0
13 1 18.869701418405093 0.0016386381351364578 0.0006645903270858028 0 0 0
14 1 20.440795661995047 1.5728464961357873 1.572637445171677 0 0 0
15 1 0.00023409362745067125 3.142893097624002 0.003237240921462017 0 0 0
16 1 1.571038571100547 4.714676426764948 1.5744803157012714 0 0 0
17 1 3.141438510667182 3.1404663137630537 0.006087946236808028 0 0 0
18 1 4.713900561653267 4.71291782451141 1.5760898632482303 0 0 0
19 1 6.28679557093303 3.1397054222780127 0.007027429300458323 0 0 0
20 1 7.8600898148283695 4.71269063284936 1.5764134440197528 0 0 0
21 1 9.43351177331139 3.140052905572001 0.0064056331083477734 0 0 0
22 1 11.00705816953632 4.713201455448694 1.5753222328858008 0 0 0
23 1 12.580233734061968 3.1410551690047632 0.004948372577485814 0 0 0
24 1 14.15378186669584 4.713877528510118 1.5734909150013332 0 0 0
25 1 15.72615702045334 3.1419674513360727 0.0034426571257343574 0 0 0
26 1 17.298894162641727 4.714630375878037 1.5722212655510472 0 0 0
27 1 18.8693161655649 3.143099680502737 0.0022457646066007812 0 0 0
28 1 20.440040225963507 4.715797987881124 1.573194171881506 0 0 0
29 1 22.009525090439137 6.2874959773053485 0.0031640895032776016 -1 0 0
30 1 1.571270002865797 7.860008953580517 1.573699320795761 0 0 0
31 1 3.1410671924499787 6.28591969200535 0.005929440382093332 0 0 0
32 1 4.714066148386527 7.85925353950343 1.574542424192076 0 0 0
33 1 6.285373876762633 6.284019084026825 0.009789687672492916 0 0 0
34 1 7.860651684213872 7.859400695270551 1.575843509919706 0 0 0
35 1 9.432799354439691 6.2836135239852124 0.008843438085749878 0 0 0
36 1 11.006828445939773 7.8594069791308 1.574266913197664 0 0 0
37 1 12.580442054626323 6.284802283988135 0.006776176584584961 0 0 0
38 1 14.154928947966715 7.859178210656961 1.5710852880882402 0 0 0
39 1 15.726990517230567 6.28577636598402 0.0037205990350860155 0 0 0
40 1 17.29901372163702 7.860162295846114 1.5714554717647784 0 0 0
41 1 18.869057108237254 6.287518461081877 0.002233214918364137 0 0 0
42 1 20.44021770173415 7.860484940496549 1.5724499175510327 0 0 0
43 1 0.0006270718291989389 9.432887010339783 0.0019740891243803472 0 0 0
44 1 1.5721962068372588 11.005831693907364 1.5722322318505622 0 0 0
45 1 3.1418433546774533 9.43238242755039 0.004207884922960071 0 0 0
46 1 4.7146233834740885 11.005828072614946 1.5724627542868899 0 0 0
47 1 6.286291684978045 9.431945058904496 0.006370340592134551 0 0 0
48 1 7.8612520405838 11.00606587716037 1.573267365266158 0 0 0
49 1 9.433155420889763 9.4318618394232 0.006829935857150644 0 0 0
50 1 11.007786489028177 11.00697098111623 1.5704150551788496 0 0 0
51 1 12.580762249834404 9.432133606490405 0.004329484585343907 0 0 0
52 1 14.15624744954839 11.007162411415436 1.5681307261766178 0 0 0
53 1 15.727225437467393 9.432568258043132 0.001720472295810339 0 0 0
54 1 17.30058307264591 11.00622803512166 1.568560852304162 0 0 0
55 1 18.869602100722382 9.432897854816192 0.0007101460470218774 0 0 0
56 1 20.44136448956817 11.00599749296249 1.5707059277653421 0 0 0
57 1 0.001745211720419617 12.57846810929112 0.00047803960046989596 0 0 0
58 1 1.5732675859126535 14.151638861728044 1.570889533397663 0 0 0
59 1 3.1431042670425056 12.578378246958671 0.002172893019194099 0 0 0
60 1 4.715666227580226 14.151978488946677 1.5705271263556233 0 0 0
61 1 6.287594966917253 12.577940128990898 0.0030613665291442578 0 0 0
62 1 7.861429068848394 14.152731136886839 1.5700534374997344 0 0 0
63 1 9.433783136331956 12.578279396006197 0.002782252106126381 0 0 0
64 1 11.008284983135598 14.153962983421973 1.567306537151007 0 0 0
65 1 12.580963167008424 12.578724023571581 22.00914580910745 0 0 -1
66 1 14.157002376498252 14.155319727318805 1.5619364314166482 0 0 0
67 1 15.72820354916982 12.579489475099479 22.007753357364255 0 0 -1
68 1 17.30215874772239 14.153754020418443 1.5655287331588599 0 0 0
69 1 18.87068752306728 12.578873796302176 22.008293984413747 0 0 -1
70 1 20.442704301617404 14.152083340495134 1.5691561966209884 0 0 0
71 1 0.0026446924250029054 15.72376643625701 22.00917478866513 0 0 -1
72 1 1.5737663005681644 17.296969475507055 1.570653277757689 0 0 0
73 1 3.144040614772742 15.7237399848557 0.0011194991958415807 0 0 0
74 1 4.716074461679887 17.297454066521308 1.5710017707367925 0 0 0
75 1 6.287941241593753 15.724466103815436 0.002270058038129897 0 0 0
76 1 7.8613551584403885 17.29821047834503 1.5700804887883795 0 0 0
77 1 9.43428603359632 15.725169339607213 0.0006504919221021941 0 0 0
78 1 11.007784508311863 17.29991609712513 1.5676181342528759 0 0 0
79 1 12.581155685328758 15.726116601646277 22.007491776055105 0 0 -1
80 1 14.155645753646818 17.301395787707985 1.5649152021327402 0 0 0
81 1 15.728501995430918 15.726704988975422 22.00554654463525 0 0 -1
82 1 17.30277350151681 17.301411348868385 1.5645102599209681 0 0 0
83 1 18.871579479550324 15.724992034298232 22.007113039843137 0 0 -1
84 1 20.443427915406563 17.297994790662372 1.5687637608055152 0 0 0
85 1 0.00265541273535132 18.868234843230734 9.827138109873049e-05 0 0 0
86 1 1.5736611668222338 20.44011247525895 1.5722942283479346 0 0 0
87 1 3.1442069409819693 18.867925268859512 0.0017829791325172438 0 0 0
88 1 4.716760046725663 20.439518470819284 1.5729986196403623 0 0 0
89 1 6.288683619436447 18.867809859577726 0.001790178357750359 0 0 0
90 1 7.861538661734225 20.439903334068465 1.5725144886767874 0 0 0
91 1 9.434284850362317 18.86850040109593 0.0006376843722893447 0 0 0
92 1 11.0073072585319 20.441123523230495 1.5711531934523724 0 0 0
93 1 12.580596836587002 18.869625899889876 22.00859695020374 0 0 -1
94 1 14.15369865617596 20.44236208605293 1.5697645887486151 0 0 0
95 1 15.727019260969424 18.870528699709716 22.007509295649502 0 0 -1
96 1 17.299663134752745 20.442840192178377 1.5692121542162116 0 0 0
97 1 18.871477809697822 18.87000966203521 22.007687328614562 0 0 -1
98 1 20.44256169320479 20.441644141184064 1.5704542141963513 0 0 0
99 1 0.0028873616456496567 0.002494192474920115 3.1441031218886955 0 0 0
100 1 1.5727626097273604 1.5723447396175978 4.71676745193123 0 0 0
101 1 3.1447522346854395 0.001317317814985735 3.1448150459211943 0 0 0
102 1 4.715689914717274 1.5710114906172454 4.716662486329673 0 0 0
103 1 6.2889791275772895 0.001280154943495223 3.144922891101714 0 0 0
104 1 7.861116935585505 1.5716304853867231 4.7165409788189 0 0 0
105 1 9.43426789809944 0.00223100028045165 3.144061695963422 0 0 0
106 1 11.007125432776192 1.5726989109704879 4.7156842178014875 0 0 0
107 1 12.580400285907464 0.0035754245236047175 3.142790109650222 0 0 0
108 1 14.153840188196828 1.5734712980387453 4.71460000032142 0 0 0
109 1 15.72683082111058 0.004467685639814012 3.1417921495000516 0 0 0
110 1 17.299636706914058 1.5740972460236204 4.7144043131528806 0 0 0
111 1 18.871410688642452 0.004227319083840412 3.142267842713462 0 0 0
112 1 20.441444352567128 1.5739917587251877 4.716076127679493 0 0 0
113 1 0.0012777539683142003 3.143654896789575 3.1446172403483215 0 0 0
114 1 1.5698512194683176 4.713549977391569 4.715165814780069 0 0 0
115 1 3.1424173190609404 3.1416135100207208 3.145014206140373 0 0 0
116 1 4.710575203082843 4.70954290247059 4.712495632364172 0 0 0
117 1 6.287639607610859 3.141595680930524 3.1457339879530117 0 0 0
118 1 7.859137763594057 4.71121521318404 4.713744205888923 0 0 0
119 1 9.433852332729815 3.1421734919239523 3.1453675154832226 0 0 0
120 1 11.007500178179706 4.711645224443807 4.713438993627816 0 0 0
121 1 12.580393005507164 3.142849464791496 3.14424532430146 0 0 0
122 1 14.157432071131177 4.7100685899564745 4.710523406746297 0 0 0
123 1 15.727164155666104 3.14288994168434 3.142683104774807 0 0 0
124 1 17.30267735503387 4.712167407509985 4.711499104242857 0 0 0
125 1 18.8707244500425 3.143793555399642 3.1431243582327704 0 0 0
126 1 20.44095432022841 4.715477742665175 4.715418908450541 0 0 0
127 1 0.0007431188261702508 6.287812603938125 3.14430538140088 0 0 0
128 1 1.5697532639784673 7.8594227134382155 4.714368974304585 0 0 0
129 1 3.1413398750831516 6.285932337300188 3.1436693392346977 0 0 0
130 1 4.709884536876013 7.856403983105589 4.709358019070791 0 0 0
131 1 6.286251890167399 6.285195344784269 3.1430534980769216 0 0 0
132 1 7.859447532813132 7.858018983829371 4.707145314765914 0 0 0
133 1 9.433657073096905 6.284926755340509 3.142816289499126 0 0 0
134 1 11.007447401706147 7.857872376672985 4.706070096109516 0 0 0
135 1 12.581393994615082 6.2855128034026535 3.141100405860768 0 0 0
136 1 14.161933944800941 7.854160028398854 4.701795721903209 0 0 0
137 1 15.729296587701954 6.285139996528122 3.139484114980466 0 0 0
138 1 17.30258243702835 7.859246474422433 4.710927419252889 0 0 0
139 1 18.87055971634757 6.287694149973736 3.142852060444028 0 0 0
140 1 20.440807058997958 7.860660104089208 4.714629884495009 0 0 0
141 1 0.0015357969517498847 9.433153824906867 3.143002537864898 0 0 0
142 1 1.5708636018590818 11.006189828066788 4.713116014839388 0 0 0
143 1 3.1420084907258823 9.432664426846546 3.142668327694735 0 0 0
144 1 4.71046895462789 11.006689232942408 4.709167851893482 0 0 0
145 1 6.2865836377831075 9.433316929985553 3.1409129594187783 0 0 0
146 1 7.860313606046215 11.008509144459383 4.709552071416357 0 0 0
147 1 9.43497239033971 9.43454523513119 3.1439832822793656 0 0 0
148 1 11.013269226940912 11.013288514613773 4.7015077939815795 0 0 0
149 1 12.583831387658707 9.433770966919036 3.1353792241596343 0 0 0
150 1 14.163464791248165 11.010691632979608 4.7013739161591195 0 0 0
151 1 15.729775735511495 9.433518263967965 3.138413829235504 0 0 0
152 1 17.30570199801165 11.006612127187292 4.7069269654570185 0 0 0
153 1 18.871577408624283 9.433153535433444 3.141050110486746 0 0 0
154 1 20.442807345342015 11.006473818505796 4.712372032560076 0 0 0
155 1 0.002962671985303979 12.57924703944142 3.141436012723127 0 0 0
156 1 1.5721517468926158 14.153491751451924 4.711859936103657 0 0 0
157 1 3.1428541203415636 12.579530920676461 3.1411098642748874 0 0 0
158 1 4.710551717075187 14.157237497295869 4.706055520019229 0 0 0
159 1 6.287078088602371 12.580093617047243 3.138642468008862 0 0 0
160 1 7.859597489456986 14.15880641287192 4.702373632858772 0 0 0
161 1 9.434894403318909 12.582143641375042 3.1389781543458533 0 0 0
162 1 11.011289862135841 14.16230307726343 4.697674495828519 0 0 0
163 1 12.585920218555271 12.584019781947655 3.1309541322688745 0 0 0
164 1 14.171508460318474 14.170251380922211 4.681678080565061 0 0 0
165 1 15.733451807578158 12.581923205496775 3.1323029214892992 0 0 0
166 1 17.310931603737398 14.15861487206964 4.701506389067795 0 0 0
167 1 18.873866580262195 12.579978904371954 3.138308980663444 0 0 0
168 1 20.445545879385907 14.153936420020205 4.710571694514507 0 0 0
169 1 0.004199260076638179 15.725634534865721 3.1405497572956205 0 0 0
170 1 1.573235509982973 17.300062221469286 4.712000748434419 0 0 0
171 1 3.1433803064144454 15.72641994257082 3.13990968535124 0 0 0
172 1 4.712505996143878 17.303262978301625 4.708878113706504 0 0 0
173 1 6.28741266278088 15.727633403201706 3.137974761699541 0 0 0
174 1 7.8597011162058275 17.304193949061382 4.707909664900388 0 0 0
175 1 9.434838492834668 15.729840273877501 3.1358511359071164 0 0 0
176 1 11.00868426817997 17.307895741290636 4.704344466670967 0 0 0
177 1 12.583743476988394 15.73299076258234 3.1301304147426077 0 0 0
178 1 14.162611792811541 17.313548136906004 4.69847947560242 0 0 0
179 1 15.735976597615034 15.734728057426297 3.1264008694199603 0 0 0
180 1 17.314007956118804 17.313148592130485 4.698696075485789 0 0 0
181 1 18.875985947902613 15.728303561938114 3.1362804088396645 0 0 0
182 1 20.447137184514702 17.30175730761731 4.710195372099983 0 0 0
183 1 0.004452011301927368 18.870776007679773 3.1413746705545207 0 0 0
184 1 1.5741018076259332 20.44178364021348 4.715239805300988 0 0 0
185 1 3.1443818940899178 18.870561496951346 3.1418972191307737 0 0 0
186 1 4.716468369978019 20.441907096225805 4.714997822171285 0 0 0
187 1 6.288525037952326 18.870783676584388 3.1416923344314633 0 0 0
188 1 7.86160498452789 20.442624394287556 4.714319525796413 0 0 0
189 1 9.434335918324228 18.8722587879794 3.140167850284719 0 0 0
190 1 11.007725254920686 20.444894908550577 4.712515047348753 0 0 0
191 1 12.581658067701632 18.87457560003937 3.13765145592965 0 0 0
192 1 14.155460426782502 20.447382485756552 4.710862663321131 0 0 0
193 1 15.730424326137321 18.87642024642444 3.1357359402120757 0 0 0
194 1 17.302637107001043 20.447575306179697 4.710762760082704 0 0 0
195 1 18.87558291925796 18.874778612717495 3.137270460856265 0 0 0
196 1 20.443669640819017 20.44348077113041 4.71399822478757 0 0 0
197 1 0.0030845277435566977 0.003095826450630595 6.2883901073262365 0 0 0
198 1 1.5724814309962134 1.5722884363746013 7.861249283644775 0 0 0
199 1 3.14485108570421 0.0020660576660711063 6.288672187386697 0 0 0
200 1 4.7157283787424 1.5709066841806218 7.861732578364694 0 0 0
201 1 6.288736992984173 0.0020605975770876172 6.2882832007099685 0 0 0
202 1 7.86058378024398 1.570610806110576 7.861336894147549 0 0 0
203 1 9.434411187589118 0.0031908062276139204 6.287556325951789 0 0 0
204 1 11.006332564527634 1.5717039180827554 7.861306846925937 0 0 0
205 1 12.580645255364296 0.0053182921489998754 6.286448933020862 0 0 0
206 1 14.15400398914891 1.5724667413176905 7.860029120958442 0 0 0
207 1 15.728034283396013 0.0066791359556300075 6.285679349427168 0 0 0
208 1 17.299099404370875 1.5742507387064235 7.860292584692131 0 0 0
209 1 18.87160188542945 0.0051131351993427285 6.287125398836167 0 0 0
210 1 20.440896975556427 1.5739969947251256 7.860981277552258 0 0 0
211 1 0.0013603988166119617 3.1440921629704834 6.288830236371065 0 0 0
212 1 1.5697861607257622 4.713839371596944 7.860921297994229 0 0 0
213 1 3.1420436616597285 3.1411683115022218 6.288123448591019 0 0 0
214 1 4.709752583790475 4.707755528146335 7.8583445646502925 0 0 0
215 1 6.286134804478995 3.138811890814721 6.287398144461923 0 0 0
216 1 7.856413994586757 4.703890441778058 7.857125083495292 0 0 0
217 1 9.433435976933714 3.1402776039140847 6.287125740554379 0 0 0
218 1 11.006228157140399 4.704849926085102 7.859332091471202 0 0 0
219 1 12.580773939486065 3.140095950857767 6.2866740640640915 0 0 0
220 1 14.159079453811492 4.7031346085571855 7.855793176761488 0 0 0
221 1 15.728680324044603 3.141017203828058 6.285631916226263 0 0 0
222 1 17.30139438360645 4.712885043018254 7.858997548902938 0 0 0
223 1 18.870708522688528 3.1443725069466035 6.287774952311154 0 0 0
224 1 20.440270710222347 4.715724816858207 7.860898235694993 0 0 0
225 1 22.009154685574213 6.286979036225929 6.287407799407377 -1 0 0
226 1 1.5656112059682146 7.857827259487475 7.858710523401412 0 0 0
227 1 3.1349096570308737 6.28106082403652 6.2827500485885475 0 0 0
228 1 4.692154087267964 7.843212907311497 7.844005335446086 0 0 0
229 1 6.272733178271669 6.271198703945688 6.272823204812615 0 0 0
230 1 7.819270105685842 7.815388723755439 7.815006775922956 0 0 0
231 1 9.431749744975042 6.2771471491053985 6.276476354563663 0 0 0
232 1 11.02958308572225 7.817216961759797 7.821555492325248 0 0 0
233 1 12.590644259226472 6.271285659673039 6.272383620543679 0 0 0
234 1 14.193937653867502 7.819500703349782 7.823072095990946 0 0 0
235 1 15.740731749059657 6.274558296719072 6.2739804310081295 0 0 0
236 1 17.30799598824299 7.857172648216691 7.854903953730307 0 0 0
237 1 18.87301569937179 6.286535829929916 6.285690016893171 0 0 0
238 1 20.440556235160297 7.860435226510639 7.859494082397795 0 0 0
239 1 22.009440770710352 9.433164125026368 6.286181701795966 -1 0 0
240 1 1.5663983306280003 11.005682710531774 7.8576798309797224 0 0 0
241 1 3.1361491624298923 9.431103452864104 6.282515150302353 0 0 0
242 1 4.694427834458282 11.00567277907018 7.849820921736389 0 0 0
243 1 6.2745629079905 9.428125700158102 6.268149674967466 0 0 0
244 1 7.805344660526773 11.018478959899099 7.834157135032786 0 0 0
245 1 9.434088316499922 9.435419041155736 6.287382627960119 0 0 0
246 1 11.071535732822072 11.038799230779917 7.797565066727386 0 0 0
247 1 12.596999212498913 9.424016250652922 6.252348085270694 0 0 0
248 1 14.17547391539967 11.007069520414857 7.838217025883723 0 0 0
249 1 15.73717399809995 9.431775739132082 6.275706579134049 0 0 0
250 1 17.305670585898937 11.010414861548721 7.852713737988749 0 0 0
251 1 18.872694288136802 9.434201692324349 6.284336076035271 0 0 0
252 1 20.44134532037459 11.007350174835627 7.857666813823554 0 0 0
253 1 0.002288548820808376 12.579982575152203 6.28463275635902 0 0 0
254 1 1.5688394144014985 14.154470368778684 7.856837759405368 0 0 0
255 1 3.136988945509546 12.581312780454342 6.28147508125602 0 0 0
256 1 4.695270323209571 14.167595747339016 7.842714633906939 0 0 0
257 1 6.272794785031742 12.589392638719453 6.265998740997587 0 0 0
258 1 7.826637572870892 14.196781522239444 7.815488460725287 0 0 0
259 1 9.432118388279342 12.590309801335303 6.277415440796281 0 0 0
260 1 11.02596313291689 14.205150573453944 7.807682502737843 0 0 0
261 1 12.613441083037811 12.612092331531622 6.250543204489303 0 0 0
262 1 14.251526360970955 14.248256783992254 7.7589267667511574 0 0 0
263 1 15.748421018446642 12.585407018464556 6.264082372081751 0 0 0
264 1 17.32587583444989 14.167601413228798 7.843928078263116 0 0 0
265 1 18.878033102188148 12.581555608094943 6.280288080068812 0 0 0
266 1 20.447376437926412 14.1553898192663 7.85619464251118 0 0 0
267 1 0.004811214332223157 15.727728193738384 6.28404558858766 0 0 0
268 1 1.5726694426189398 17.300135463674962 7.8581033446651425 0 0 0
269 1 3.137971928111702 15.731454627583583 6.280184283606791 0 0 0
270 1 4.710482335480126 17.3060986686543 7.853880095772441 0 0 0
271 1 6.275373581040499 15.741873394784639 6.26951680944532 0 0 0
272 1 7.858515810959911 17.311304692214012 7.851306332123626 0 0 0
273 1 9.4325026875502 15.743357645190835 6.268187943941002 0 0 0
274 1 11.013128404729096 17.31433372325336 7.849806435540482 0 0 0
275 1 12.595176391127644 15.756401499831588 6.25478495203911 0 0 0
276 1 14.171414110613114 17.329340262887147 7.841606221001291 0 0 0
277 1 15.766262461995135 15.765228614261957 6.246298123718031 0 0 0
278 1 17.312562909270895 17.312082355938205 7.8515525315198404 0 0 0
279 1 18.88427351768382 15.734048640572993 6.2776968586095885 0 0 0
280 1 20.446466388067993 17.30187572591605 7.85737855087327 0 0 0
281 1 0.004649528496517466 18.87174633923491 6.2861636949137605 0 0 0
282 1 1.5739033308369914 20.44151190314007 7.860307475164696 0 0 0
283 1 3.1436417871873155 18.872552235416048 6.285490513629397 0 0 0
284 1 4.716397936209515 20.442242809666936 7.8601772845517415 0 0 0
285 1 6.2873462520627506 18.874959410596333 6.284098070292032 0 0 0
286 1 7.861468109775437 20.44372913032286 7.859127678897658 0 0 0
287 1 9.43522090112459 18.8765365121024 6.282473221266448 0 0 0
288 1 11.008339732203257 20.445588627254313 7.858244164950687 0 0 0
289 1 12.583922413120433 18.882111054560877 6.2789105037168405 0 0 0
290 1 14.156702115181373 20.450180166728686 7.856720141625602 0 0 0
291 1 15.735835449895635 18.885607743941595 6.2773105049476525 0 0 0
292 1 17.302195750567435 20.44718591819435 7.858089054935747 0 0 0
293 1 18.876507827972972 18.876286567513255 6.28316016000192 0 0 0
294 1 20.443143965402196 20.443264342661504 7.859736873215659 0 0 0
295 1 0.002292160656539397 0.002347347616752919 9.433409636690818 0 0 0
296 1 1.5711755339614117 1.5708928200487011 11.006318907011352 0 0 0
297 1 3.144051576643566 0.0009782912463105144 9.433528687429039 0 0 0
298 1 4.713775273120515 1.568436615859217 11.006688855707589 0 0 0
299 1 6.28874140786456 0.0010749623114567522 9.434239446977001 0 0 0
300 1 7.860037804923417 1.5698853131134352 11.00804627035163 0 0 0
301 1 9.433681143103806 0.00200764197049164 9.433675844078213 0 0 0
302 1 11.005214937168912 1.568351683578732 11.008319483101504 0 0 0
303 1 12.580539512939776 0.003456603602587532 9.433067395809468 0 0 0
304 1 14.153519733243757 1.5703161176871612 11.00699921575875 0 0 0
305 1 15.727394281485099 0.004989282704982843 9.432752004823604 0 0 0
306 1 17.298296890492374 1.572815267996731 11.006354161321996 0 0 0
307 1 18.87071102530184 0.0041376921002380575 9.433041313043093 0 0 0
308 1 20.439837395923355 1.5728921654514514 11.006230890244948 0 0 0
309 1 0.00030536719474086077 3.143451109978613 9.433762647229086 0 0 0
310 1 1.5676675489469671 4.712242963234685 11.006591078394802 0 0 0
311 1 3.1410137592561562 3.140385510393627 9.433472311996814 0 0 0
312 1 4.706502290163357 4.705327517865762 11.005814550749578 0 0 0
313 1 6.286349277004525 3.1392531841453937 9.435607858126291 0 0 0
314 1 7.858685227225173 4.713150728553874 11.010246039032685 0 0 0
315 1 9.430789517633617 3.140320957970686 9.434781618228685 0 0 0
316 1 11.000472729500968 4.69645583480252 11.012955724094251 0 0 0
317 1 12.580349382462856 3.1366763399425963 9.434732421516172 0 0 0
318 1 14.15668318866054 4.705072913474037 11.008858078905508 0 0 0
319 1 15.727409642566533 3.14108559604956 9.433624551263492 0 0 0
320 1 17.299729016116952 4.712839373206286 11.006797447227234 0 0 0
321 1 18.86952721185993 3.1441274608258083 9.4335956619618 0 0 0
322 1 20.438718376727834 4.714978251201491 11.006401914653715 0 0 0
323 1 22.00839901211952 6.286931468656492 9.433717636212096 -1 0 0
324 1 1.5658966339661977 7.857325198123396 11.007246441541549 0 0 0
325 1 3.136553222052378 6.282534002450222 9.433433598298658 0 0 0
326 1 4.7023315938300785 7.8511132262974295 11.007588305972629 0 0 0
327 1 6.274551393099508 6.270795782396273 9.429333084829409 0 0 0
328 1 7.839170703736975 7.86005606401639 10.984060556776608 0 0 0
329 1 9.422827373948575 6.284458475310172 9.422211803998076 0 0 0
330 1 10.989658292561622 7.759998012455568 10.995144172518923 0 0 0
331 1 12.591479942934157 6.259933335724854 9.429218212223002 0 0 0
332 1 14.177208098934695 7.8386837237583 11.009210607042956 0 0 0
333 1 15.735365816629857 6.27771965826578 9.431041626245236 0 0 0
334 1 17.302617528174135 7.859341767821655 11.005407551940198 0 0 0
335 1 18.870836753992055 6.287016602711847 9.432995240416663 0 0 0
336 1 20.43836877721518 7.860419670607907 11.00585111213817 0 0 0
337 1 22.007615566214486 9.4328068811915 9.43263590698887 -1 0 0
338 1 1.5659130693869083 11.00463677259054 11.006290908514751 0 0 0
339 1 3.1305652204941032 9.427990904784467 9.430501254094297 0 0 0
340 1 4.695767553437313 10.999937704335178 11.008318541634596 0 0 0
341 1 6.246453007461946 9.38911639660953 9.381120045942879 0 0 0
342 1 7.483486303224842 10.990333699727884 11.012026952057202 0 0 0
343 1 9.408594690276546 9.385557924508827 9.156728693090047 0 0 0
344 1 11.46858725554331 11.196682979110518 10.476700863005899 0 0 0
345 1 12.667051991457038 9.312291581400752 9.308221112532461 0 0 0
346 1 14.184011399636368 11.027328455949945 10.966046368635316 0 0 0
347 1 15.740753785616198 9.427162445334934 9.423520028164019 0 0 0
348 1 17.303367784249264 11.01245526488037 10.996947799708487 0 0 0
349 1 18.871982539594473 9.43431296041114 9.430257069152471 0 0 0
350 1 20.439370645075474 11.007140556584835 11.004121933166944 0 0 0
351 1 9.086278490925219e-05 12.57975007286738 9.431570469445429 0 0 0
352 1 1.5674952713986843 14.153563317159662 11.005287650625736 0 0 0
353 1 3.130928277056579 12.580788790952054 9.429704299442236 0 0 0
354 1 4.697427325330517 14.159165525336523 11.002143569238305 0 0 0
355 1 6.243597099234768 12.616456037855706 9.387522606096445 0 0 0
356 1 7.816427021757767 14.164296494372394 10.962305554364416 0 0 0
357 1 9.402095533998684 12.647219331453073 9.231925812705509 0 0 0
358 1 11.063750542699136 14.259936215863236 10.94669522067935 0 0 0
359 1 12.790763176830705 12.822168636391533 9.244820350017307 0 0 0
360 1 14.200531753553953 14.200078193076246 11.007860950238035 0 0 0
361 1 15.744541640081298 12.608439855996624 9.40725575316418 0 0 0
362 1 17.312538194281323 14.161712587104445 11.000835315600376 0 0 0
363 1 18.87581293469637 12.583705049184426 9.427589409488284 0 0 0
364 1 20.44312358924362 14.154201475160818 11.003955913102216 0 0 0
365 1 0.0032490234275531775 15.727267756038254 9.431361348044534 0 0 0
366 1 1.5717266041665587 17.29877535304992 11.005104771435192 0 0 0
367 1 3.137552643607557 15.729673496404775 9.429665808751045 0 0 0
368 1 4.711025018820038 17.302214519944283 11.003986480715968 0 0 0
369 1 6.271779866278482 15.745181728056073 9.419630498144288 0 0 0
370 1 7.861083046763553 17.29948354073878 11.0026079902332 0 0 0
371 1 9.429152288536216 15.742050049836399 9.415602028222875 0 0 0
372 1 11.013372460954683 17.314242303931948 10.99818595820977 0 0 0
373 1 12.618370577428687 15.751115131298077 9.398111030427824 0 0 0
374 1 14.162585004668578 17.313097804016003 11.001613580678848 0 0 0
375 1 15.7536441817827 15.75243149535442 9.421194770115282 0 0 0
376 1 17.307078560027083 17.306745772676052 11.004543838514202 0 0 0
377 1 18.88023462979184 15.732744038547906 9.429067012368339 0 0 0
378 1 20.443941899216586 17.300172898221803 11.00495843457398 0 0 0
379 1 0.0036966639493434534 18.870890021600633 9.432375001244075 0 0 0
380 1 1.5729417174284408 20.44013083454622 11.005773212657415 0 0 0
381 1 3.1435418223203455 18.8710484987981 9.432062439278514 0 0 0
382 1 4.715455229181334 20.44012005580222 11.00569963937306 0 0 0
383 1 6.2877689820946285 18.873443278580503 9.43175476251198 0 0 0
384 1 7.861719961020471 20.439442124219223 11.005839969300666 0 0 0
385 1 9.434325784455318 18.87517332221534 9.429104300377917 0 0 0
386 1 11.007834049877875 20.442397335311377 11.004954258855792 0 0 0
387 1 12.58613380332277 18.88004772761998 9.427186753407081 0 0 0
388 1 14.155189786810235 20.444595260565983 11.004819584867613 0 0 0
389 1 15.73364331822697 18.88090452644162 9.429601324367958 0 0 0
390 1 17.30055442433458 20.444346555321523 11.00545095625108 0 0 0
391 1 18.874567745801045 18.874529298704044 9.431502173034476 0 0 0
392 1 20.441846104841794 20.4418095112715 11.005674677048503 0 0 0
393 1 0.0011326240661455452 0.0008729449644307918 12.57867946764976 0 0 0
394 1 1.5697837019700644 1.5691132608242246 14.152096137991164 0 0 0
395 1 3.1427649114755924 22.00850239372274 12.57898314087586 0 -1 0
396 1 4.712000944458205 1.5648686350863852 14.15334158280652 0 0 0
397 1 6.287324976510813 22.00729417871604 12.579168171282396 0 -1 0
398 1 7.857774790682248 1.561352618046495 14.155787752859812 0 0 0
399 1 9.433014348701448 22.006899877541958 12.579742029027454 0 -1 0
400 1 11.00551542085973 1.56351833392832 14.15481328090589 0 0 0
401 1 12.580095890369211 22.009125618301688 12.579479647280865 0 -1 0
402 1 14.153627188594006 1.5671782335304494 14.15350120388183 0 0 0
403 1 15.7263002387805 0.0018980330906176897 12.578861149076037 0 0 0
404 1 17.297670656630814 1.5708557638866172 14.152020499148485 0 0 0
405 1 18.86952893256458 0.0022817827515284154 12.578698995633877 0 0 0
406 1 20.438873494225824 1.5714511814963754 14.151523590687203 0 0 0
407 1 22.00832861027283 3.1420117616086003 12.579229441387401 -1 0 0
408 1 1.5648530457011336 4.710162955727838 14.15372067005363 0 0 0
409 1 3.1386788857220536 3.1377194479055825 12.57987885030325 0 0 0
410 1 4.700948316169747 4.698436354174459 14.158554808097268 0 0 0
411 1 6.282661383158345 3.1333245434595804 12.580778573664135 0 0 0
412 1 7.844016838490188 4.683190409014237 14.170984628936923 0 0 0
413 1 9.428452251081175 3.1341880825600636 12.585997562290888 0 0 0
414 1 11.007669515886585 4.689731415903845 14.166218687313341 0 0 0
415 1 12.580727743575318 3.1337019318135035 12.582982827235986 0 0 0
416 1 14.159536690606918 4.700879032639286 14.158929358172573 0 0 0
417 1 15.727215333084468 3.139336542765198 12.580391023739606 0 0 0
418 1 17.299758334424343 4.711439400903735 14.153723804537066 0 0 0
419 1 18.86863568112457 3.142880864233376 12.579292408987166 0 0 0
420 1 20.437451098902322 4.713903345374319 14.152152955337021 0 0 0
421 1 22.00595334890333 6.285685390578654 12.5795367330185 -1 0 0
422 1 1.559151469823249 7.855407799452832 14.156047707424534 0 0 0
423 1 3.1319436206426263 6.2789101168363795 12.581055439334238 0 0 0
424 1 4.674058412551268 7.832011532169025 14.178572240590366 0 0 0
425 1 6.26573759808217 6.259789013605596 12.578441707566022 0 0 0
426 1 7.7277094417069 7.730298991811253 14.271019496152789 0 0 0
427 1 9.413941833858026 6.269611372457828 12.618006421394751 0 0 0
428 1 11.07828180973509 7.777113467035858 14.251608037696254 0 0 0
429 1 12.590245763022004 6.262266387321597 12.592144138205468 0 0 0
430 1 14.18045956378594 7.833091416312598 14.171129503840344 0 0 0
431 1 15.734002723632681 6.278764908095905 12.582429835142921 0 0 0
432 1 17.301828917182167 7.858469661204946 14.152203990438057 0 0 0
433 1 18.869258095550077 6.286549725664022 12.579103650801347 0 0 0
434 1 20.436224295191845 7.859859899721575 14.151606289522004 0 0 0
435 1 22.005614661094498 9.432413561119644 12.579166033522906 -1 0 0
436 1 1.565652204682796 11.004246799609312 14.15434197085323 0 0 0
437 1 3.1291526978104383 9.426348792952423 12.58530534529887 0 0 0
438 1 4.701799536400826 11.002933650396965 14.161772408418992 0 0 0
439 1 6.243391458028552 9.373057032183583 12.640002973967219 0 0 0