LAMMPS data file via write_data, version 2 Aug 2023, timestep = 23, units = metal

687 atoms
3 atom types

0 22.009546999999998 xlo xhi
0 22.009546999999998 ylo yhi
0 22.009546999999998 zlo zhi

Masses

1 183.84
2 1.008
3 4.0026

Atoms # atomic

1 1 22.009543791091573 22.009543791091573 22.007384593586682 -1 -1 -1
2 1 1.572046187630127 1.5720461876301282 1.5698411272895376 0 0 0
3 1 3.1441358014947154 22.009543801308627 22.00734902081755 0 -1 -1
4 1 4.71625467653517 1.5720021592531332 1.569773352247334 0 0 0
5 1 6.2884086137224955 22.009543828458437 22.007263230155104 0 -1 -1
6 1 7.860539224095168 1.5720164256271758 1.5697362188237947 0 0 0
7 1 9.432650097833191 22.009543843428407 22.00722036048527 0 -1 -1
8 1 11.004770377810702 1.5720174349028404 1.5697100621824045 0 0 0
9 1 12.576890587391828 22.0095438433137 22.007220270965618 0 -1 -1
10 1 14.149001513551324 1.5720164284543046 1.5697360796782582 0 0 0
11 1 15.72113203030382 22.00954382845392 22.007263035708768 0 -1 -1
12 1 17.293286022575707 1.5720021604258319 1.5697731585905634 0 0 0
13 1 18.86540474594029 22.009543801171507 22.007348868463325 0 -1 -1
14 1 20.437494485161675 1.5720461869137563 1.5698410666982459 0 0 0
15 1 22.009543801308627 3.1441358014947136 22.00734902081755 -1 0 -1
16 1 1.5720021592531292 4.7162546765351685 1.5697733522473345 0 0 0
17 1 3.1440440633783653 3.1440440633783644 22.007332543331582 0 0 -1
18 1 4.716000079733252 4.7160000797332495 1.5696798888970593 0 0 0
19 1 6.288361097663591 3.1440472452384327 22.007279966181255 0 0 -1
20 1 7.860491030285644 4.716070201058407 1.569750010308131 0 0 0
21 1 9.432644041815236 3.1440637689357156 22.007207976426226 0 0 -1
22 1 11.004770397576157 4.716087142419527 1.5697206614190096 0 0 0
23 1 12.576896661665124 3.144063785066275 22.007207872527257 0 0 -1
24 1 14.149049771790587 4.716070207166011 1.5697498129772232 0 0 0
25 1 15.721179572145418 3.1440472811155877 22.007279740152455 0 0 -1
26 1 17.29354071651951 4.716000082173101 1.569679616003769 0 0 0
27 1 18.865496529750907 3.144044078782713 22.00733235679138 0 0 -1
28 1 20.437538593563257 4.716254683240935 1.5697732579227877 0 0 0
29 1 22.009543828458437 6.288408613722497 22.007263230155104 -1 0 -1
30 1 1.572016425627173 7.860539224095169 1.5697362188237924 0 0 0
31 1 3.1440472452384327 6.288361097663592 22.007279966181247 0 0 -1
32 1 4.7160702010584075 7.860491030285645 1.569750010308132 0 0 0
33 1 6.287992198155776 6.287992198155775 22.007276686253977 0 0 -1
34 1 7.859941350067573 7.859941350067573 1.569328740123247 0 0 0
35 1 9.432581596358943 6.288109508375253 22.00723930688471 0 0 -1
36 1 11.004770424038504 7.860182454668289 1.5696042497596405 0 0 0
37 1 12.576959136141788 6.288109524285348 22.00723915757324 0 0 -1
38 1 14.14959953549229 7.859941344485062 1.5693284330241017 0 0 0
39 1 15.721548528952916 6.287992240107752 22.007276365261962 0 0 -1
40 1 17.293470666277884 7.860491031902585 1.569749670370062 0 0 0
41 1 18.86549341634023 6.28836113114628 22.00727972481029 0 0 -1
42 1 20.437524406861915 7.860539229093743 1.569736099289824 0 0 0
43 1 22.009543843428407 9.43265009783319 22.00722036048527 -1 0 -1
44 1 1.5720174349028386 11.004770377810702 1.569710062182404 0 0 0
45 1 3.1440637689357147 9.432644041815236 22.007207976426223 0 0 -1
46 1 4.716087142419527 11.00477039757616 1.5697206614190098 0 0 0
47 1 6.288109508375253 9.432581596358942 22.00723930688471 0 0 -1
48 1 7.860182454668289 11.004770424038504 1.569604249759642 0 0 0
49 1 9.432233710570268 9.432233710570266 22.007247024127967 0 0 -1
50 1 11.004770440048858 11.004770440048858 1.5681936005215253 0 0 0
51 1 12.577307047104835 9.43223371372954 22.007246821709536 0 0 -1
52 1 14.149358471581532 11.004770424111317 1.5696039110099647 0 0 0
53 1 15.721431243616122 9.432581610675827 22.007238918785244 0 0 -1
54 1 17.29345375230283 11.004770397786862 1.5697203063223408 0 0 0
55 1 18.865476942592103 9.432644058844499 22.00720770319018 0 0 -1
56 1 20.437523413959887 11.004770377965883 1.5697099405293113 0 0 0
57 1 22.0095438433137 12.57689058739183 22.007220270965618 -1 0 -1
58 1 1.5720164284543037 14.149001513551324 1.5697360796782573 0 0 0
59 1 3.144063785066276 12.576896661665124 22.007207872527257 0 0 -1
60 1 4.716070207166012 14.149049771790585 1.569749812977222 0 0 0
61 1 6.288109524285347 12.576959136141792 22.00723915757324 0 0 -1
62 1 7.859941344485061 14.149599535492289 1.569328433024101 0 0 0
63 1 9.432233713729541 12.577307047104837 22.007246821709536 0 0 -1
64 1 11.004770424111317 14.149358471581532 1.5696039110099635 0 0 0
65 1 12.57730704409015 12.577307044090148 22.007246619249035 0 0 -1
66 1 14.149599541287234 14.149599541287232 1.56932812614723 0 0 0
67 1 15.721431227780977 12.576959122090274 22.007238769307612 0 0 -1
68 1 17.29347065981509 14.149049770583778 1.5697494733210413 0 0 0
69 1 18.86547692641591 12.576896644907555 22.007207599141385 0 0 -1
70 1 20.437524403717468 14.1490015088146 1.5697359603264267 0 0 0
71 1 22.009543828453918 15.721132030303819 22.007263035708768 -1 0 -1
72 1 1.5720021604258325 17.29328602257571 1.569773158590564 0 0 0
73 1 3.1440472811155877 15.72117957214542 22.007279740152455 0 0 -1
74 1 4.7160000821731005 17.293540716519512 1.5696796160037665 0 0 0
75 1 6.287992240107752 15.721548528952916 22.00727636526196 0 0 -1
76 1 7.860491031902586 17.293470666277887 1.5697496703700629 0 0 0
77 1 9.432581610675827 15.721431243616122 22.007238918785244 0 0 -1
78 1 11.004770397786862 17.29345375230283 1.5697203063223408 0 0 0
79 1 12.576959122090273 15.721431227780977 22.007238769307612 0 0 -1
80 1 14.149049770583778 17.29347065981509 1.5697494733210418 0 0 0
81 1 15.721548487461387 15.721548487461385 22.00727604426229 0 0 -1
82 1 17.293540714274155 17.29354071427415 1.569679342854839 0 0 0
83 1 18.865493379909825 15.721179539013054 22.007279498870282 0 0 -1
84 1 20.437538591959676 17.2932860159376 1.5697730645139074 0 0 0
85 1 22.009543801171503 18.86540474594029 22.00734886846333 -1 0 -1
86 1 1.5720461869137539 20.437494485161675 1.5698410666982472 0 0 0
87 1 3.1440440787827146 18.865496529750907 22.00733235679138 0 0 -1
88 1 4.716254683240936 20.437538593563254 1.5697732579227885 0 0 0
89 1 6.288361131146277 18.86549341634023 22.00727972481029 0 0 -1
90 1 7.860539229093743 20.437524406861915 1.5697360992898253 0 0 0
91 1 9.4326440588445 18.865476942592107 22.00720770319018 0 0 -1
92 1 11.004770377965883 20.437523413959887 1.5697099405293107 0 0 0
93 1 12.576896644907555 18.86547692641591 22.007207599141385 0 0 -1
94 1 14.149001508814601 20.437524403717465 1.5697359603264283 0 0 0
95 1 15.721179539013052 18.865493379909825 22.007279498870282 0 0 -1
96 1 17.293286015937596 20.437538591959676 1.569773064513909 0 0 0
97 1 18.865496514223125 18.86549651422312 22.007332169859954 0 0 -1
98 1 20.43749448592755 20.437494485927548 1.5698410061245174 0 0 0
99 1 22.00954386282878 22.009543862828778 3.1419024843722547 -1 -1 0
100 1 1.5720159442067767 1.5720159442067738 4.7139453459203 0 0 0
101 1 3.144085414124826 22.00954389329709 3.1418166634040654 0 -1 0
102 1 4.7160789279554 1.5719275385000853 4.7137719168063965 0 0 0
103 1 6.288407546024884 22.009543957264192 3.1417870783878312 0 -1 0
104 1 7.860531826586903 1.57201496984911 4.713851263716703 0 0 0
105 1 9.43265141953441 22.009543988565056 3.1417765458984555 0 -1 0
106 1 11.004770425254275 1.5720271392860683 4.713845620776923 0 0 0
107 1 12.576889392901558 22.009543988556015 3.1417764661098717 0 -1 0
108 1 14.149009045866858 1.5720149560315853 4.7138511312402525 0 0 0
109 1 15.72113323740188 22.009543956870957 3.1417869245342356 0 -1 0
110 1 17.29346194704274 1.5719275047808443 4.713771774610136 0 0 0
111 1 18.86545536653422 22.00954389336092 3.1418165322911555 0 -1 0
112 1 20.437524897833708 1.5720159432390843 4.713945270202332 0 0 0
113 1 22.00954389329709 3.1440854141248273 3.1418166634040614 -1 0 0
114 1 1.5719275385000857 4.716078927955401 4.713771916806396 0 0 0
115 1 3.1440356218100987 3.1440356218100987 3.141794593089961 0 0 0
116 1 4.715883305078767 4.715883305078768 4.7136216173475525 0 0 0
117 1 6.288348671524696 3.143997070741196 3.1417691316299354 0 0 0
118 1 7.860575936215842 4.716042958798522 4.713865148818191 0 0 0
119 1 9.432677991226033 3.144053471871956 3.1417961777713543 0 0 0
120 1 11.004770414388515 4.716217861826692 4.713943794353085 0 0 0
121 1 12.576862840471515 3.144053464446799 3.141796091262067 0 0 0
122 1 14.148964977949232 4.716042882604043 4.713864925950765 0 0 0
123 1 15.72119215078423 3.1439970449423145 3.141768935507041 0 0 0
124 1 17.293657694428358 4.715883202233962 4.713621354307719 0 0 0
125 1 18.865505233223907 3.144035590871715 3.1417944234138417 0 0 0
126 1 20.43761341344894 4.716078906916264 4.713771803431207 0 0 0
127 1 22.009543957264192 6.2884075460248825 3.1417870783878294 -1 0 0
128 1 1.5720149698491122 7.860531826586902 4.713851263716703 0 0 0
129 1 3.1439970707411953 6.288348671524696 3.1417691316299385 0 0 0
130 1 4.716042958798521 7.860575936215842 4.71386514881819 0 0 0
131 1 6.28779816896332 6.28779816896332 3.1412913237175624 0 0 0
132 1 7.859085754793176 7.859085754793176 4.712266500192371 0 0 0
133 1 9.432728488789422 6.288146175771693 3.1418726519144635 0 0 0
134 1 11.004770478631626 7.860903389167823 4.714247991926091 0 0 0
135 1 12.576812395505048 6.288146156231843 3.141872507721245 0 0 0
136 1 14.150455330281009 7.8590855971127 4.712265997427111 0 0 0
137 1 15.721742786723535 6.287798094248139 3.1412909710606978 0 0 0
138 1 17.293498161764745 7.860575847901768 4.713864805551809 0 0 0
139 1 18.86554388513089 6.288348652299833 3.1417689106453155 0 0 0
140 1 20.437526099586727 7.860531816527064 4.713851140044232 0 0 0
141 1 22.009543988565056 9.43265141953441 3.141776545898454 -1 0 0
142 1 1.5720271392860707 11.004770425254275 4.713845620776925 0 0 0
143 1 3.144053471871956 9.432677991226033 3.1417961777713557 0 0 0
144 1 4.716217861826691 11.004770414388515 4.713943794353085 0 0 0
145 1 6.288146175771694 9.432728488789422 3.1418726519144626 0 0 0
146 1 7.860903389167823 11.004770478631626 4.71424799192609 0 0 0
147 1 9.431666331525168 9.43166633152517 3.140257877294505 0 0 0
148 1 11.004770547654495 11.004770547654493 4.704231970474946 0 0 0
149 1 12.57787466935992 9.431666308349108 3.1402576234854096 0 0 0
150 1 14.148637803166839 11.00477047823874 4.714247454310697 0 0 0
151 1 15.721394849033654 9.432728465223523 3.141872234088636 0 0 0
152 1 17.29332329023375 11.004770414493365 4.713943424012024 0 0 0
153 1 18.865487551398555 9.432677984291603 3.141795943164072 0 0 0
154 1 20.437513973006034 11.00477042514465 4.713845492139403 0 0 0
155 1 22.00954398855601 12.576889392901558 3.1417764661098695 -1 0 0
156 1 1.5720149560315864 14.149009045866862 4.7138511312402525 0 0 0
157 1 3.144053464446799 12.576862840471515 3.1417960912620657 0 0 0
158 1 4.716042882604044 14.148964977949234 4.713864925950765 0 0 0
159 1 6.288146156231843 12.576812395505046 3.1418725077212426 0 0 0
160 1 7.859085597112699 14.15045533028101 4.712265997427112 0 0 0
161 1 9.431666308349106 12.577874669359918 3.1402576234854083 0 0 0
162 1 11.00477047823874 14.14863780316684 4.714247454310699 0 0 0
163 1 12.577874692457574 12.577874692457574 3.1402573695786424 0 0 0
164 1 14.150455488207829 14.15045548820783 4.712265494658176 0 0 0
165 1 15.721394868348735 12.576812419253917 3.141872090338964 0 0 0
166 1 17.29349823718307 14.14896506581555 4.7138645838184905 0 0 0
167 1 18.865487558240925 12.57686284772843 3.1417958570433084 0 0 0
168 1 20.437526112964278 14.14900905637369 4.713851008284559 0 0 0
169 1 22.00954395687096 15.721133237401878 3.141786924534235 -1 0 0
170 1 1.5719275047808452 17.29346194704274 4.713771774610137 0 0 0
171 1 3.1439970449423136 15.72119215078423 3.141768935507043 0 0 0
172 1 4.715883202233961 17.293657694428358 4.71362135430772 0 0 0
173 1 6.2877980942481395 15.721742786723535 3.1412909710607 0 0 0
174 1 7.860575847901768 17.29349816176474 4.713864805551808 0 0 0
175 1 9.432728465223523 15.721394849033656 3.1418722340886363 0 0 0
176 1 11.004770414493365 17.293323290233747 4.713943424012025 0 0 0
177 1 12.576812419253917 15.721394868348735 3.141872090338966 0 0 0
178 1 14.148965065815549 17.29349823718307 4.71386458381849 0 0 0
179 1 15.721742861226998 15.721742861226996 3.1412906189448413 0 0 0
180 1 17.293657797289942 17.29365779728994 4.713621091890569 0 0 0
181 1 18.865543910755246 15.721192170422995 3.1417687150824225 0 0 0
182 1 20.43761344708547 17.29346196784336 4.7137716616667005 0 0 0
183 1 22.00954389336092 18.865455366534224 3.141816532291154 -1 0 0
184 1 1.5720159432390837 20.43752489783371 4.713945270202331 0 0 0
185 1 3.1440355908717157 18.865505233223907 3.141794423413841 0 0 0
186 1 4.716078906916264 20.437613413448936 4.713771803431207 0 0 0
187 1 6.288348652299832 18.86554388513089 3.1417689106453146 0 0 0
188 1 7.860531816527063 20.437526099586727 4.713851140044231 0 0 0
189 1 9.432677984291603 18.865487551398555 3.14179594316407 0 0 0
190 1 11.00477042514465 20.437513973006034 4.713845492139403 0 0 0
191 1 12.576862847728432 18.865487558240925 3.141795857043308 0 0 0
192 1 14.14900905637369 20.437526112964278 4.713851008284559 0 0 0
193 1 15.721192170422993 18.865543910755246 3.141768715082421 0 0 0
194 1 17.29346196784336 20.43761344708547 4.713771661666699 0 0 0
195 1 18.865505264022485 18.865505264022485 3.141794253891394 0 0 0
196 1 20.437524898675555 20.437524898675555 4.71394519478088 0 0 0
197 1 22.009543935830695 22.009543935830695 6.286072384844485 -1 -1 0
198 1 1.5720161918955968 1.572016191895597 7.858178223479789 0 0 0
199 1 3.144064651452913 22.00954395489756 6.286032234157573 0 -1 0
200 1 4.716080760110377 1.5719591068912044 7.858144740537701 0 0 0
201 1 6.288130717427065 22.00954402037694 6.285810268323191 0 -1 0
202 1 7.860144657995854 1.5716683386251544 7.857845272356773 0 0 0
203 1 9.4326309641686 22.0095440650207 6.285915097602955 0 -1 0
204 1 11.004770438996555 1.5719346477275704 7.857991062656335 0 0 0
205 1 12.576909922496597 22.00954406516422 6.285915051347852 0 -1 0
206 1 14.149396222953749 1.5716683053397198 7.8578451667038145 0 0 0
207 1 15.721410207923883 22.009544019974197 6.285810135098565 0 -1 0
208 1 17.293460137040203 1.5719591038076448 7.858144630502117 0 0 0
209 1 18.865476218282602 22.009543954686013 6.286032166598471 0 -1 0
210 1 20.43752466160414 1.5720162041148786 7.858178192742765 0 0 0
211 1 22.009543954897556 3.1440646514529145 6.286032234157574 -1 0 0
212 1 1.5719591068912024 4.716080760110378 7.858144740537702 0 0 0
213 1 3.143988319906082 3.1439883199060805 6.2859918130565 0 0 0
214 1 4.715919618143529 4.715919618143527 7.858124058222883 0 0 0
215 1 6.287934371259096 3.1435928567011624 6.285639038766511 0 0 0
216 1 7.859438482332807 4.714660646340449 7.857247104610047 0 0 0
217 1 9.432755043023207 3.1441052159190876 6.285955013833364 0 0 0
218 1 11.004770375033896 4.716635319743462 7.8585306666304025 0 0 0
219 1 12.576785810004429 3.144105171615337 6.285954936032605 0 0 0
220 1 14.150102460572475 4.71466040028488 7.857246827981351 0 0 0
221 1 15.72160657878365 3.143592762023017 6.285638835331763 0 0 0
222 1 17.293621305668214 4.715919586590848 7.85812385850914 0 0 0
223 1 18.865552593183708 3.1439883056043554 6.2859916958955795 0 0 0
224 1 20.437581805511456 4.716080769846523 7.858144678782832 0 0 0
225 1 22.009544020376943 6.288130717427064 6.285810268323192 -1 0 0
226 1 1.5716683386251538 7.860144657995854 7.857845272356774 0 0 0
227 1 3.1435928567011624 6.287934371259097 6.285639038766509 0 0 0
228 1 4.714660646340451 7.859438482332808 7.857247104610048 0 0 0
229 1 6.287220076843046 6.287220076843045 6.284978681975448 0 0 0
230 1 7.856447702893009 7.856447702893009 7.854859856280453 0 0 0
231 1 9.433329361809658 6.28863878968524 6.286669674917442 0 0 0
232 1 11.004770391571727 7.866050096129211 7.862883473851361 0 0 0
233 1 12.576211506048542 6.288638670749505 6.286669450428587 0 0 0
234 1 14.153094041318633 7.856446824441966 7.854858709627469 0 0 0
235 1 15.722321154677857 6.287219739521241 6.284978155145431 0 0 0
236 1 17.294880550997746 7.859438334629168 7.8572466836305175 0 0 0
237 1 18.865948204916858 6.287934314065326 6.285638814226705 0 0 0
238 1 20.43787270057491 7.860144655939417 7.8578451614109905 0 0 0
239 1 22.0095440650207 9.4326309641686 6.285915097602957 -1 0 0
240 1 1.5719346477275682 11.004770438996555 7.857991062656334 0 0 0
241 1 3.1441052159190876 9.432755043023207 6.285955013833362 0 0 0
242 1 4.716635319743463 11.004770375033898 7.8585306666304025 0 0 0
243 1 6.288638789685239 9.433329361809658 6.286669674917442 0 0 0
244 1 7.86605009612921 11.004770391571729 7.86288347385136 0 0 0
245 1 9.428289750111208 9.428289750111208 6.283616599694471 0 0 0
246 1 11.00477084377913 11.00477084377913 7.797734167571261 0 0 0
247 1 12.581251511688532 9.428289571592849 6.283615958993244 0 0 0
248 1 14.143491656808301 11.004770390904401 7.862882385742248 0 0 0
249 1 15.720902540126495 9.43332924032574 6.286669044104889 0 0 0
250 1 17.29290591283827 11.004770374592523 7.858530153230571 0 0 0
251 1 18.86543594761231 9.43275500396743 6.285954736378654 0 0 0
252 1 20.437606449740713 11.004770438664519 7.857990934104049 0 0 0
253 1 22.00954406516422 12.576909922496597 6.285915051347855 -1 0 0
254 1 1.5716683053397178 14.149396222953749 7.8578451667038145 0 0 0
255 1 3.144105171615336 12.576785810004427 6.285954936032605 0 0 0
256 1 4.714660400284882 14.150102460572473 7.857246827981353 0 0 0
257 1 6.288638670749506 12.576211506048542 6.2866694504285885 0 0 0
258 1 7.856446824441966 14.153094041318631 7.854858709627469 0 0 0
259 1 9.428289571592847 12.581251511688532 6.283615958993245 0 0 0
260 1 11.004770390904401 14.143491656808301 7.862882385742247 0 0 0
261 1 12.581251689875259 12.581251689875259 6.283615318093272 0 0 0
262 1 14.15309491994277 14.15309491994277 7.854857562587706 0 0 0
263 1 15.72090265935304 12.576211626817406 6.286668819758281 0 0 0
264 1 17.29488079695255 14.150102607352041 7.857246407430302 0 0 0
265 1 18.865435991113294 12.576785848883263 6.285954659324679 0 0 0
266 1 20.437872733381802 14.149396225261576 7.857845055916771 0 0 0
267 1 22.009544019974197 15.721410207923885 6.285810135098566 -1 0 0
268 1 1.5719591038076426 17.293460137040203 7.8581446305021165 0 0 0
269 1 3.1435927620230153 15.72160657878365 6.285638835331762 0 0 0
270 1 4.7159195865908465 17.293621305668214 7.85812385850914 0 0 0
271 1 6.287219739521241 15.722321154677855 6.284978155145429 0 0 0
272 1 7.859438334629169 17.294880550997746 7.857246683630519 0 0 0
273 1 9.43332924032574 15.720902540126495 6.286669044104888 0 0 0
274 1 11.004770374592523 17.29290591283827 7.858530153230571 0 0 0
275 1 12.576211626817404 15.72090265935304 6.2866688197582805 0 0 0
276 1 14.15010260735204 17.29488079695255 7.857246407430303 0 0 0
277 1 15.722321491532668 15.722321491532666 6.28497762873665 0 0 0
278 1 17.293621336629066 17.293621336629066 7.858123659744813 0 0 0
279 1 18.86594829964943 15.721606635556414 6.285638611529407 0 0 0
280 1 20.43758180823812 17.293460126837644 7.858144568892403 0 0 0
281 1 22.009543954686013 18.865476218282602 6.286032166598472 -1 0 0
282 1 1.5720162041148782 20.43752466160414 7.858178192742765 0 0 0
283 1 3.143988305604357 18.865552593183704 6.285991695895581 0 0 0
284 1 4.716080769846525 20.437581805511453 7.858144678782832 0 0 0
285 1 6.287934314065324 18.865948204916858 6.285638814226708 0 0 0
286 1 7.860144655939416 20.437872700574907 7.8578451614109905 0 0 0
287 1 9.432755003967431 18.86543594761231 6.285954736378656 0 0 0
288 1 11.004770438664519 20.43760644974071 7.857990934104048 0 0 0
289 1 12.576785848883262 18.865435991113294 6.28595465932468 0 0 0
290 1 14.149396225261576 20.4378727333818 7.85784505591677 0 0 0
291 1 15.721606635556414 18.86594829964943 6.285638611529408 0 0 0
292 1 17.293460126837644 20.43758180823812 7.858144568892403 0 0 0
293 1 18.86555260723392 18.865552607233916 6.285991579194871 0 0 0
294 1 20.437524649044423 20.437524649044423 7.8581781618946165 0 0 0
295 1 22.009543892166523 22.009543892166523 9.430297245379247 -1 -1 0
296 1 1.5720028377984328 1.5720028377984299 11.00244787913416 0 0 0
297 1 3.1440428321486276 22.00954388845318 9.430300939178055 0 -1 0
298 1 4.71604996867822 1.5719502747324097 11.002477816886275 0 0 0
299 1 6.288158612143018 22.009543920848955 9.430303959545283 0 -1 0
300 1 7.860262193468157 1.5718185008133139 11.002504759725849 0 0 0
301 1 9.432411306792003 22.009543951616646 9.43011351853268 0 -1 0
302 1 11.004770376971138 1.5710399327103846 11.002509148040671 0 0 0
303 1 12.577129552354318 22.009543951886926 9.430113449306786 0 -1 0
304 1 14.149278576536059 1.5718185325598129 11.002504660511077 0 0 0
305 1 15.72138223414716 22.009543920588435 9.430303871732935 0 -1 0
306 1 17.29349075446683 1.5719503106852686 11.002477700977563 0 0 0
307 1 18.86549797634417 22.00954388836527 9.430300849970656 0 -1 0
308 1 20.437537852744036 1.5720028789598082 11.00244782424692 0 0 0
309 1 22.00954388845318 3.1440428321486285 9.430300939178053 -1 0 0
310 1 1.5719502747324101 4.716049968678221 11.002477816886275 0 0 0
311 1 3.144005984891344 3.144005984891343 9.43032179495278 0 0 0
312 1 4.715987897525099 4.7159878975251 11.002488401321392 0 0 0
313 1 6.288075913986642 3.143862952207625 9.430369041263058 0 0 0
314 1 7.860483249046955 4.715806818503213 11.002467938562042 0 0 0
315 1 9.432076151609749 3.142931887790218 9.429743320011395 0 0 0
316 1 11.004770287342467 4.710380405297783 11.002449750627292 0 0 0
317 1 12.577464635689102 3.1429318104897708 9.429743225889743 0 0 0
318 1 14.149057381094702 4.715806859861031 11.002467809044399 0 0 0
319 1 15.721464880520141 3.143862967497866 9.430368922736466 0 0 0
320 1 17.29355274908216 4.715987995851522 11.002488248013158 0 0 0
321 1 18.865534831360165 3.144006029326065 9.430321697160169 0 0 0
322 1 20.437590410697315 4.716050009381014 11.002477744385256 0 0 0
323 1 22.009543920848955 6.288158612143018 9.430303959545281 -1 0 0
324 1 1.571818500813316 7.860262193468156 11.002504759725847 0 0 0
325 1 3.143862952207625 6.288075913986643 9.43036904126306 0 0 0
326 1 4.7158068185032125 7.860483249046956 11.00246793856204 0 0 0
327 1 6.288024622072396 6.288024622072395 9.430589328125372 0 0 0
328 1 7.861667877923562 7.861667877923561 11.002435050392764 0 0 0
329 1 9.429969686426473 6.285930007692604 9.427902148488602 0 0 0
330 1 11.004770281232858 7.822491611982619 11.002434878893315 0 0 0
331 1 12.579571168451935 6.285929537519039 9.427901858299283 0 0 0
332 1 14.147872646039364 7.861667868671373 11.002434864843403 0 0 0
333 1 15.72151622268778 6.2880245330949105 9.430589080610527 0 0 0
334 1 17.293733769432265 7.860483302722602 11.00246765816498 0 0 0
335 1 18.865677876060698 6.28807594534988 9.430368892595787 0 0 0
336 1 20.437722159120227 7.86026223578251 11.002504665014216 0 0 0
337 1 22.009543951616646 9.432411306792003 9.430113518532679 -1 0 0
338 1 1.5710399327103854 11.00477037697114 11.002509148040673 0 0 0
339 1 3.1429318877902195 9.432076151609747 9.429743320011397 0 0 0
340 1 4.710380405297783 11.004770287342465 11.002449750627292 0 0 0
341 1 6.2859300076926035 9.429969686426473 9.427902148488602 0 0 0
342 1 7.822491611982619 11.004770281232858 11.002434878893316 0 0 0
343 1 9.408551711849215 9.408551711849213 9.4168521885965 0 0 0
344 1 20.437510715874126 20.437510715874126 20.43532331899246 0 0 0
345 1 12.600991438797436 9.408549198887226 9.416849816745177 0 0 0
346 1 14.187048916017424 11.004770280245518 11.002433664096262 0 0 0
347 1 15.723611325651543 9.429969519990053 9.427901469650132 0 0 0
348 1 17.299160150847968 11.004770286572107 11.00244932488936 0 0 0
349 1 18.86660905272502 9.432076150608244 9.429743076132747 0 0 0
350 1 20.438500724856674 11.004770376405256 11.002509027995306 0 0 0
351 1 22.009543951886926 12.57712955235432 9.430113449306784 -1 0 0
352 1 1.5718185325598135 14.149278576536059 11.002504660511077 0 0 0
353 1 3.1429318104897717 12.577464635689102 9.429743225889743 0 0 0
354 1 4.71580685986103 14.149057381094702 11.002467809044397 0 0 0
355 1 6.285929537519039 12.579571168451936 9.42790185829928 0 0 0
356 1 7.861667868671373 14.147872646039364 11.002434864843403 0 0 0
357 1 9.408549198887226 12.600991438797436 9.416849816745177 0 0 0
358 1 11.004770280245518 14.187048916017424 11.002433664096264 0 0 0
359 1 12.600993950041243 12.600993950041243 9.41684744436248 0 0 0
360 1 14.147872651897604 14.147872651897604 11.002434679041258 0 0 0
361 1 15.723611795777456 12.579571333668667 9.427901179310735 0 0 0
362 1 17.293733726691023 14.149057326059433 11.002467528976915 0 0 0
363 1 18.866609129189573 12.577464635892648 9.429742982091636 0 0 0
364 1 20.43772212659405 14.149278534714323 11.002504566140853 0 0 0
365 1 22.009543920588435 15.72138223414716 9.430303871732935 -1 0 0
366 1 1.5719503106852695 17.29349075446683 11.002477700977566 0 0 0
367 1 3.1438629674978666 15.721464880520141 9.430368922736468 0 0 0
368 1 4.715987995851521 17.29355274908216 11.00248824801316 0 0 0
369 1 6.2880245330949105 15.721516222687779 9.43058908061053 0 0 0
370 1 7.860483302722603 17.29373376943226 11.002467658164981 0 0 0
371 1 9.429969519990053 15.723611325651543 9.427901469650134 0 0 0
372 1 11.004770286572107 17.299160150847964 11.00244932488936 0 0 0
373 1 12.57957133366867 15.723611795777456 9.427901179310735 0 0 0
374 1 14.149057326059431 17.293733726691023 11.002467528976913 0 0 0
375 1 15.72151631083289 15.72151631083289 9.430588834437662 0 0 0
376 1 17.293552649846553 17.29355264984655 11.002488094854627 0 0 0
377 1 18.865677859975325 15.7214648485175 9.430368774984489 0 0 0
378 1 20.437590374226076 17.29349071338897 11.002477628771329 0 0 0
379 1 22.009543888365265 18.86549797634417 9.430300849970655 -1 0 0
380 1 1.5720028789598093 20.43753785274404 11.002447824246921 0 0 0
381 1 3.144006029326065 18.86553483136016 9.430321697160167 0 0 0
382 1 4.716050009381014 20.437590410697318 11.002477744385256 0 0 0
383 1 6.288075945349879 18.865677876060694 9.430368892595784 0 0 0
384 1 7.86026223578251 20.437722159120227 11.002504665014218 0 0 0
385 1 9.432076150608244 18.866609052725018 9.429743076132745 0 0 0
386 1 11.004770376405256 20.438500724856677 11.002509027995306 0 0 0
387 1 12.577464635892648 18.866609129189573 9.429742982091634 0 0 0
388 1 14.149278534714323 20.43772212659405 11.002504566140855 0 0 0
389 1 15.721464848517499 18.865677859975328 9.430368774984487 0 0 0
390 1 17.29349071338897 20.437590374226076 11.002477628771329 0 0 0
391 1 18.86553478617457 18.86553478617457 9.430321599581378 0 0 0
392 1 20.43753781149547 20.437537811495474 11.002447769574077 0 0 0
393 1 22.00954379527467 22.00954379527467 12.574612869182 -1 -1 0
394 1 1.5719953097918096 1.5719953097918107 14.146786625325076 0 0 0
395 1 3.1440137722430466 22.009543781009246 12.574623955218373 0 -1 0
396 1 4.716030341313231 1.5719508878536768 14.146831990345756 0 0 0
397 1 6.288123428268892 22.009543762485833 12.574689907051889 0 -1 0
398 1 7.860108287446627 1.5716727582480805 14.14715218658968 0 0 0
399 1 9.432401212761103 22.009543719987462 12.5749164592822 0 -1 0
400 1 11.004770327770169 1.5719491140125543 14.147000991910955 0 0 0
401 1 12.57713950671424 22.009543720132235 12.574916404519794 0 -1 0
402 1 14.149432290807074 1.5716728453763131 14.147152017367237 0 0 0
403 1 15.721417248168658 22.00954376197418 12.574689752557306 0 -1 0
404 1 17.2935102082573 1.571950950134752 14.14683181716061 0 0 0
405 1 18.86552682832469 22.00954378088602 12.574623861228323 0 -1 0
406 1 20.437545181619562 1.5719953508571698 14.146786547492825 0 0 0
407 1 22.009543781009246 3.144013772243048 12.574623955218375 -1 0 0
408 1 1.5719508878536765 4.71603034131323 14.146831990345754 0 0 0
409 1 3.1439802080784176 3.143980208078417 12.574621285139106 0 0 0
410 1 4.715888263769594 4.715888263769594 14.14684942578304 0 0 0
411 1 6.2880576883771315 3.1438592030986072 12.574606965364824 0 0 0
412 1 7.859415001490264 4.714656104483663 14.147673401892888 0 0 0
413 1 9.432065252748243 3.142938424204196 12.575215776115499 0 0 0
414 1 11.004770219391137 4.7166490760387045 14.146352921928141 0 0 0
415 1 12.577475344501428 3.1429385321512964 12.575215692662766 0 0 0
416 1 14.150125319020226 4.71465640530179 14.147673094564455 0 0 0
417 1 15.721482886122951 3.143859328990712 12.574606791212684 0 0 0
418 1 17.293652131133307 4.715888453276295 14.14684918423417 0 0 0
419 1 18.865560388577535 3.1439802889229935 12.574621160955036 0 0 0
420 1 20.437589548705823 4.716030402067732 14.146831882000914 0 0 0
421 1 22.009543762485833 6.288123428268889 12.574689907051889 -1 0 0
422 1 1.5716727582480803 7.860108287446627 14.14715218658968 0 0 0
423 1 3.1438592030986063 6.288057688377131 12.574606965364822 0 0 0
424 1 4.714656104483663 7.859415001490263 14.14767340189289 0 0 0
425 1 6.288021269739626 6.288021269739624 12.57433556148901 0 0 0
426 1 7.856455728047908 7.856455728047907 14.150049072351965 0 0 0
427 1 9.42996671132276 6.285934376611403 12.576975363285548 0 0 0
428 1 11.004770098178652 7.866066894632623 14.142013819756544 0 0 0
429 1 12.579573506469634 6.285934819685909 12.576975088251002 0 0 0
430 1 14.15308366423494 7.85645652398217 14.150048000248386 0 0 0
431 1 15.721519062158333 6.288021443122189 12.574335292825015 0 0 0
432 1 17.294883908356734 7.859415236930585 14.147672928629436 0 0 0
433 1 18.86568126206563 6.288057807224908 12.574606777218468 0 0 0
434 1 20.437867541407254 7.860108357161625 14.147152018279943 0 0 0
435 1 22.009543719987466 9.432401212761105 12.574916459282202 -1 0 0
436 1 1.5719491140125526 11.004770327770169 14.147000991910954 0 0 0
437 1 3.1429384242041962 9.432065252748243 12.575215776115497 0 0 0
438 1 4.716649076038705 11.004770219391135 14.14635292192814 0 0 0
439 1 6.285934376611403 9.429966711322761 12.57697536328555 0 0 0
440 1 7.866066894632623 11.004770098178652 14.142013819756542 0 0 0
441 1 9.408536403371988 9.408536403371988 12.588045471839528 0 0 0