LAMMPS data file via write_data, version 2 Aug 2023, timestep = 23, units = metal

687 atoms
3 atom types

0 22.009546999999998 xlo xhi
0 22.009546999999998 ylo yhi
0 22.009546999999998 zlo zhi

Masses

1 183.84
2 1.008
3 4.0026

Atoms # atomic

1 1 22.0095438338497 22.0095438338497 22.007399766770906 -1 -1 -1
2 1 1.5720841375963235 1.572084137596323 1.5700278622818413 0 0 0
3 1 3.144141432372583 22.009543833561438 22.007362146875007 0 -1 -1
4 1 4.716261259561267 1.572028252236547 1.5699421122535153 0 0 0
5 1 6.2883857399143865 22.00954383266796 22.00726075465085 0 -1 -1
6 1 7.860531205973513 1.57201344906586 1.5698577769095965 0 0 0
7 1 9.432639004189896 22.00954383067419 22.00719472608251 0 -1 -1
8 1 11.00477034886613 1.5720143690071016 1.5698037877949893 0 0 0
9 1 12.576901678255014 22.009543830699847 22.007194680343513 0 -1 -1
10 1 14.149009495455068 1.5720134420135223 1.5698576863159068 0 0 0
11 1 15.72115493647228 22.009543832667934 22.007260646472243 0 -1 -1
12 1 17.29327945882856 1.5720282388716584 1.5699419854572354 0 0 0
13 1 18.86539923366221 22.009543833572955 22.007362050273144 0 -1 -1
14 1 20.437456593627427 1.5720841317774432 1.5700277988897136 0 0 0
15 1 22.009543833561438 3.144141432372584 22.007362146875007 -1 0 -1
16 1 1.5720282522365479 4.716261259561267 1.5699421122535158 0 0 0
17 1 3.1440869948959835 3.1440869948959835 22.007346579972918 0 0 -1
18 1 4.716080799599428 4.716080799599428 1.5698858375379512 0 0 0
19 1 6.2883130560597795 3.144025635025178 22.00727664059045 0 0 -1
20 1 7.860428314950103 4.716038545585372 1.569825519255129 0 0 0
21 1 9.432621936415966 3.144022677308759 22.007201504956264 0 0 -1
22 1 11.004770348637363 4.716049532103479 1.5697726405252788 0 0 0
23 1 12.576918742542395 3.1440226790471257 22.0072014416895 0 0 -1
24 1 14.149112402271687 4.716038517549838 1.569825347440359 0 0 0
25 1 15.72122761854869 3.144025638195348 22.007276487511042 0 0 -1
26 1 17.2934599653314 4.716080748441248 1.5698855923680597 0 0 0
27 1 18.865453672071805 3.144086997760139 22.007346436337 0 0 -1
28 1 20.437512503558708 4.716261244040063 1.5699420180517913 0 0 0
29 1 22.009543832667962 6.2883857399143865 22.007260754650847 -1 0 -1
30 1 1.5720134490658604 7.860531205973513 1.5698577769095974 0 0 0
31 1 3.1440256350251774 6.2883130560597795 22.00727664059045 0 0 -1
32 1 4.716038545585372 7.860428314950104 1.5698255192551287 0 0 0
33 1 6.2879914813453945 6.2879914813453945 22.00727384051227 0 0 -1
34 1 7.859941740645354 7.859941740645354 1.56942637440361 0 0 0
35 1 9.432521814853692 6.288026664015329 22.007249326782034 0 0 -1
36 1 11.004770358080842 7.860124770879825 1.5694956125187696 0 0 0
37 1 12.577018855431605 6.288026664601899 22.007249192958824 0 0 -1
38 1 14.149599033177779 7.8599416927117876 1.5694260075016655 0 0 0
39 1 15.721549188693366 6.287991485123136 22.007273531309504 0 0 -1
40 1 17.293502252881296 7.860428274871609 1.5698251760976112 0 0 0
41 1 18.86551503001528 6.288313058587503 22.007276429284257 0 0 -1
42 1 20.437527333751962 7.860531192071557 1.569857653990944 0 0 0
43 1 22.00954383067419 9.432639004189896 22.00719472608251 -1 0 -1
44 1 1.572014369007103 11.004770348866128 1.5698037877949897 0 0 0
45 1 3.1440226773087594 9.432621936415966 22.007201504956264 0 0 -1
46 1 4.7160495321034785 11.004770348637361 1.56977264052528 0 0 0
47 1 6.288026664015329 9.43252181485369 22.007249326782038 0 0 -1
48 1 7.860124770879825 11.00477035808084 1.5694956125187693 0 0 0
49 1 9.432212025823752 9.432212025823754 22.007268673979265 0 0 -1
50 1 11.0047703714152 11.0047703714152 1.5682504104375237 0 0 0
51 1 12.577328637084658 9.432212027965202 22.007268428459934 0 0 -1
52 1 14.149416039612118 11.004770358108388 1.5694951570010682 0 0 0
53 1 15.721513999977596 9.432521815870528 22.007248913175218 0 0 -1
54 1 17.29349127815124 11.004770348679834 1.5697722582227283 0 0 0
55 1 18.865517986551588 9.432621939804749 22.007201253098042 0 0 -1
56 1 20.437526420170585 11.00477034887011 1.569803653407459 0 0 0
57 1 22.009543830699847 12.576901678255014 22.007194680343513 -1 0 -1
58 1 1.572013442013523 14.149009495455068 1.5698576863159066 0 0 0
59 1 3.144022679047125 12.576918742542395 22.007201441689496 0 0 -1
60 1 4.716038517549838 14.149112402271689 1.569825347440358 0 0 0
61 1 6.288026664601898 12.577018855431605 22.007249192958824 0 0 -1
62 1 7.8599416927117876 14.149599033177779 1.569426007501668 0 0 0
63 1 9.432212027965202 12.577328637084657 22.00726842845993 0 0 -1
64 1 11.004770358108388 14.149416039612118 1.5694951570010687 0 0 0
65 1 12.577328634957386 12.577328634957386 22.007268182962154 0 0 -1
66 1 14.149599081154774 14.149599081154776 1.5694256406014373 0 0 0
67 1 15.721513999445724 12.577018854465843 22.007248779355518 0 0 -1
68 1 17.293502280998936 14.14911244240619 1.5698250042399813 0 0 0
69 1 18.865517984829328 12.576918739213754 22.007201189839883 0 0 -1
70 1 20.437527340882514 14.149009509426662 1.5698575633494034 0 0 0
71 1 22.009543832667934 15.721154936472281 22.007260646472247 -1 0 -1
72 1 1.5720282388716582 17.293279458828557 1.5699419854572356 0 0 0
73 1 3.1440256381953486 15.72122761854869 22.007276487511046 0 0 -1
74 1 4.7160807484412475 17.2934599653314 1.5698855923680584 0 0 0
75 1 6.287991485123135 15.721549188693364 22.007273531309504 0 0 -1
76 1 7.86042827487161 17.293502252881296 1.5698251760976112 0 0 0
77 1 9.432521815870528 15.721513999977596 22.007248913175218 0 0 -1
78 1 11.004770348679834 17.29349127815124 1.5697722582227265 0 0 0
79 1 12.577018854465843 15.721513999445724 22.007248779355518 0 0 -1
80 1 14.14911244240619 17.293502280998936 1.5698250042399808 0 0 0
81 1 15.721549184963337 15.721549184963337 22.00727322211488 0 0 -1
82 1 17.293460016582056 17.293460016582056 1.5698853472405239 0 0 0
83 1 18.865515026970186 15.721227616067473 22.00727627618929 0 0 -1
84 1 20.437512516989877 17.293279474360805 1.5699418912382719 0 0 0
85 1 22.009543833572955 18.86539923366221 22.007362050273144 -1 0 -1
86 1 1.5720841317774426 20.43745659362743 1.5700277988897156 0 0 0
87 1 3.1440869977601387 18.865453672071805 22.007346436336995 0 0 -1
88 1 4.716261244040065 20.43751250355871 1.5699420180517918 0 0 0
89 1 6.2883130585875024 18.86551503001528 22.00727642928426 0 0 -1
90 1 7.860531192071555 20.437527333751962 1.5698576539909441 0 0 0
91 1 9.432621939804749 18.865517986551588 22.007201253098042 0 0 -1
92 1 11.004770348870112 20.437526420170588 1.5698036534074602 0 0 0
93 1 12.576918739213754 18.865517984829328 22.00720118983988 0 0 -1
94 1 14.149009509426662 20.437527340882514 1.569857563349404 0 0 0
95 1 15.721227616067473 18.865515026970183 22.00727627618929 0 0 -1
96 1 17.293279474360805 20.437512516989877 1.5699418912382717 0 0 0
97 1 18.86545366925734 18.86545366925734 22.007346292705122 0 0 -1
98 1 20.437456599472743 20.437456599472746 1.570027735463095 0 0 0
99 1 22.0095438791656 22.0095438791656 3.1421894171959464 -1 -1 0
100 1 1.5721201857328677 1.5721201857328666 4.714275859255063 0 0 0
101 1 3.1442225891563345 22.00954390428468 3.142155500941801 0 -1 0
102 1 4.716381465143364 1.5721185436527128 4.714249452073425 0 0 0
103 1 6.28845978570714 22.00954392927754 3.142066282552518 0 -1 0
104 1 7.860631174080312 1.5721098628335728 4.714208459132239 0 0 0
105 1 9.43266963878744 22.009543948489608 3.142002470917401 0 -1 0
106 1 11.004770353216097 1.5721120379805353 4.714162180753577 0 0 0
107 1 12.57687106662874 22.009543948535075 3.142002425304468 0 -1 0
108 1 14.14890956095305 1.572109829700668 4.714208368217606 0 0 0
109 1 15.721080946699612 22.009543929339078 3.142066177283085 0 -1 0
110 1 17.293159338697947 1.5721184854881 4.714249320199324 0 0 0
111 1 18.86531818390309 22.00954390431341 3.142155399567971 0 -1 0
112 1 20.437420607018932 1.572120169384461 4.71427581056087 0 0 0
113 1 22.00954390428468 3.144222589156335 3.142155500941801 -1 0 0
114 1 1.5721185436527134 4.716381465143365 4.7142494520734255 0 0 0
115 1 3.1441867900302976 3.144186790030297 3.142148392748655 0 0 0
116 1 4.7163564626803565 4.716356462680357 4.714265942020476 0 0 0
117 1 6.288386790422574 3.1440646422265948 3.1420376083744097 0 0 0
118 1 7.860536827590231 4.716152775260487 4.714097211928399 0 0 0
119 1 9.43268122760977 3.144097654740644 3.141993166527208 0 0 0
120 1 11.004770367306962 4.7163692379228275 4.714135440472471 0 0 0
121 1 12.576859489868635 3.144097634177163 3.141993099880029 0 0 0
122 1 14.149003977495267 4.7161526537798135 4.714097005664522 0 0 0
123 1 15.72115397213204 3.144064583120431 3.142037445454998 0 0 0
124 1 17.29318449877137 4.716356264277108 4.71426564547708 0 0 0
125 1 18.86535402523603 3.144186730778243 3.1421482439449804 0 0 0
126 1 20.4374223621378 4.716381407766956 4.714249352565151 0 0 0
127 1 22.00954392927754 6.288459785707141 3.1420662825525194 -1 0 0
128 1 1.5721098628335717 7.860631174080311 4.714208459132239 0 0 0
129 1 3.144064642226595 6.2883867904225745 3.142037608374411 0 0 0
130 1 4.716152775260487 7.86053682759023 4.7140972119284 0 0 0
131 1 6.287995191741016 6.287995191741016 3.1417287504004787 0 0 0
132 1 7.859472461627516 7.859472461627516 4.712939244002093 0 0 0
133 1 9.432624873897723 6.288128225512665 3.141819580008875 0 0 0
134 1 11.004770415140749 7.860824946586207 4.713575896653334 0 0 0
135 1 12.57691587584217 6.288128175467853 3.1418194153766463 0 0 0
136 1 14.150068679582438 7.859472153716993 4.712938516359927 0 0 0
137 1 15.721545710200468 6.287995038908457 3.1417283510063494 0 0 0
138 1 17.293388310027538 7.860536663586322 4.71409677657977 0 0 0
139 1 18.865476243737735 6.288386720022795 3.142037380485045 0 0 0
140 1 20.43743112368864 7.860631130803644 4.714208318582124 0 0 0
141 1 22.009543948489608 9.43266963878744 3.142002470917401 -1 0 0
142 1 1.5721120379805331 11.004770353216099 4.714162180753577 0 0 0
143 1 3.144097654740644 9.43268122760977 3.141993166527206 0 0 0
144 1 4.716369237922827 11.004770367306962 4.714135440472471 0 0 0
145 1 6.288128225512666 9.432624873897721 3.1418195800088746 0 0 0
146 1 7.860824946586207 11.004770415140749 4.713575896653333 0 0 0
147 1 9.431723744663163 9.431723744663165 3.1402064671359993 0 0 0
148 1 11.004770527454951 11.004770527454951 4.704793891218533 0 0 0
149 1 12.57781715220059 9.431723707667013 3.1402060509985747 0 0 0
150 1 14.148716339079034 11.004770415178815 4.713575009581277 0 0 0
151 1 15.721412763966143 9.43262479469738 3.1418190436044866 0 0 0
152 1 17.293171937523557 11.004770367301104 4.714134908491143 0 0 0
153 1 18.865443281342813 9.432681188980805 3.1419928842708766 0 0 0
154 1 20.437428978943508 11.004770353222481 4.71416202727889 0 0 0
155 1 22.009543948535075 12.57687106662874 3.1420024253044696 -1 0 0
156 1 1.5721098297006666 14.148909560953049 4.714208368217606 0 0 0
157 1 3.1440976341771627 12.576859489868635 3.1419930998800294 0 0 0
158 1 4.716152653779814 14.149003977495267 4.714097005664523 0 0 0
159 1 6.288128175467853 12.57691587584217 3.141819415376647 0 0 0
160 1 7.859472153716992 14.150068679582438 4.712938516359926 0 0 0
161 1 9.431723707667013 12.57781715220059 3.1402060509985756 0 0 0
162 1 11.004770415178815 14.148716339079034 4.713575009581276 0 0 0
163 1 12.57781718919542 12.57781718919542 3.1402056348973137 0 0 0
164 1 14.150068987557212 14.150068987557214 4.71293778856486 0 0 0
165 1 15.721412814078699 12.576915955127125 3.1418188788935666 0 0 0
166 1 17.293388431648978 14.14900414158847 4.7140965701881345 0 0 0
167 1 18.865443301919825 12.576859528525336 3.1419928176393346 0 0 0
168 1 20.437431156918816 14.148909604277383 4.714208227694124 0 0 0
169 1 22.009543929339078 15.721080946699612 3.142066177283083 -1 0 0
170 1 1.5721184854881012 17.29315933869795 4.714249320199324 0 0 0
171 1 3.1440645831204304 15.72115397213204 3.1420374454549975 0 0 0
172 1 4.716356264277107 17.29318449877137 4.714265645477081 0 0 0
173 1 6.287995038908458 15.721545710200466 3.1417283510063494 0 0 0
174 1 7.860536663586322 17.293388310027538 4.71409677657977 0 0 0
175 1 9.43262479469738 15.721412763966143 3.141819043604486 0 0 0
176 1 11.004770367301102 17.293171937523557 4.714134908491143 0 0 0
177 1 12.576915955127124 15.721412814078699 3.1418188788935666 0 0 0
178 1 14.14900414158847 17.293388431648978 4.7140965701881345 0 0 0
179 1 15.721545863096996 15.721545863096994 3.1417279515903314 0 0 0
180 1 17.29318469728249 17.29318469728249 4.714265348902592 0 0 0
181 1 18.86547630294729 15.721154042635561 3.1420372175331397 0 0 0
182 1 20.437422420359926 17.293159396105334 4.714249220716711 0 0 0
183 1 22.00954390431341 18.86531818390309 3.1421553995679705 -1 0 0
184 1 1.572120169384462 20.437420607018936 4.714275810560869 0 0 0
185 1 3.1441867307782423 18.86535402523603 3.1421482439449817 0 0 0
186 1 4.7163814077669555 20.4374223621378 4.71424935256515 0 0 0
187 1 6.288386720022795 18.865476243737735 3.1420373804850454 0 0 0
188 1 7.860631130803645 20.43743112368864 4.714208318582125 0 0 0
189 1 9.432681188980803 18.865443281342813 3.1419928842708775 0 0 0
190 1 11.004770353222481 20.437428978943508 4.71416202727889 0 0 0
191 1 12.576859528525334 18.865443301919825 3.1419928176393346 0 0 0
192 1 14.148909604277385 20.437431156918816 4.714208227694124 0 0 0
193 1 15.721154042635561 18.86547630294729 3.1420372175331397 0 0 0
194 1 17.293159396105334 20.437422420359923 4.714249220716712 0 0 0
195 1 18.86535408451856 18.86535408451856 3.1421480951322165 0 0 0
196 1 20.43742062339122 20.43742062339122 4.71427576190205 0 0 0
197 1 22.009543888269008 22.009543888269008 6.286356611251271 -1 -1 0
198 1 1.5721716479222465 1.5721716479222478 7.858404855047215 0 0 0
199 1 3.144294319542015 22.009543906698205 6.286351724065707 0 -1 0
200 1 4.716477710429507 1.5721884584847292 7.858420885699207 0 0 0
201 1 6.288516951573951 22.009543982559965 6.2863044761090885 0 -1 0
202 1 7.860628730764398 1.5722061768000584 7.858353183113345 0 0 0
203 1 9.432749028118803 22.00954402417887 6.286337151669001 0 -1 0
204 1 11.004770351517552 1.572359716153506 7.858436632351659 0 0 0
205 1 12.576791684591685 22.009544024209738 6.286337112737317 0 -1 0
206 1 14.148912020255297 1.5722060966831286 7.858353103936448 0 0 0
207 1 15.72102382282544 22.009543982575977 6.286304377629142 0 -1 0
208 1 17.293063053726264 1.5721884260546395 7.858420827245708 0 0 0
209 1 18.865246458038108 22.009543906731547 6.286351668306922 0 -1 0
210 1 20.437369113682895 1.5721716398326315 7.8584048322683815 0 0 0
211 1 22.0095439066982 3.144294319542015 6.2863517240657085 -1 0 0
212 1 1.5721884584847288 4.716477710429506 7.858420885699207 0 0 0
213 1 3.1442860586084964 3.144286058608497 6.28635299668161 0 0 0
214 1 4.716502893772012 4.716502893772012 7.858399402356651 0 0 0
215 1 6.288553589078267 3.144313937167165 6.286334408165108 0 0 0
216 1 7.860705820299706 4.716662341176913 7.8583667285409 0 0 0
217 1 9.432843389022795 3.1444524517111434 6.286359866077582 0 0 0
218 1 11.00477035627563 4.717577560317074 7.859014552579034 0 0 0
219 1 12.576697337149302 3.1444523922865586 6.28635979680021 0 0 0
220 1 14.148835135601507 4.716661945279128 7.85836643952379 0 0 0
221 1 15.720987272573089 3.1443137523869766 6.286334215423001 0 0 0
222 1 17.29303796766037 4.716502778366886 7.858399269141532 0 0 0
223 1 18.86525476960403 3.1442859974753654 6.286352905100659 0 0 0
224 1 20.437352368052668 4.7164776810403115 7.8584208403870255 0 0 0
225 1 22.009543982559965 6.28851695157395 6.2863044761090885 -1 0 0
226 1 1.5722061768000575 7.860628730764398 7.858353183113346 0 0 0
227 1 3.1443139371671656 6.288553589078267 6.286334408165107 0 0 0
228 1 4.716662341176914 7.8607058202997075 7.858366728540899 0 0 0
229 1 6.2886793774164795 6.288679377416481 6.286402315290473 0 0 0
230 1 7.861268740231272 7.861268740231272 7.858783890397164 0 0 0
231 1 9.432833826858909 6.288587426366269 6.28631957797479 0 0 0
232 1 11.004770415870917 7.863128135836248 7.858884945960774 0 0 0
233 1 12.576707006940296 6.288587283716382 6.286319363221511 0 0 0
234 1 14.148273612914695 7.861267325687254 7.858782181171451 0 0 0
235 1 15.720861939362822 6.288678842839013 6.286401658128153 0 0 0
236 1 17.292879041527552 7.860705506021949 7.858366218016645 0 0 0
237 1 18.865227126901267 6.288553421904559 6.286334154346267 0 0 0
238 1 20.43733483716875 7.860628679373575 7.858353072382534 0 0 0
239 1 22.00954402417887 9.432749028118803 6.286337151669002 -1 0 0
240 1 1.5723597161535057 11.00477035151755 7.858436632351658 0 0 0
241 1 3.1444524517111434 9.432843389022795 6.286359866077584 0 0 0
242 1 4.717577560317073 11.00477035627563 7.859014552579035 0 0 0
243 1 6.288587426366269 9.432833826858907 6.2863195779747905 0 0 0
244 1 7.863128135836249 11.004770415870917 7.8588849459607735 0 0 0
245 1 9.428759934254337 9.428759934254337 6.283648887447102 0 0 0
246 1 11.004771429747725 11.004771429747725 7.802271273329873 0 0 0
247 1 12.580781632765488 9.428759566368218 6.283647575188226 0 0 0
248 1 14.146414283742278 11.004770415978749 7.858882970094241 0 0 0
249 1 15.720954059854932 9.432833585571823 6.286318714104445 0 0 0
250 1 17.291963931556726 11.004770356273498 7.859013878374764 0 0 0
251 1 18.8650887131783 9.43284331157189 6.28635953204051 0 0 0
252 1 20.437181359630202 11.004770351483543 7.8584364903395745 0 0 0
253 1 22.009544024209738 12.576791684591685 6.286337112737315 -1 0 0
254 1 1.5722060966831286 14.148912020255297 7.858353103936447 0 0 0
255 1 3.1444523922865586 12.576697337149302 6.286359796800209 0 0 0
256 1 4.716661945279128 14.148835135601507 7.85836643952379 0 0 0
257 1 6.288587283716381 12.576707006940296 6.28631936322151 0 0 0
258 1 7.861267325687254 14.148273612914693 7.858782181171451 0 0 0
259 1 9.428759566368218 12.580781632765488 6.283647575188228 0 0 0
260 1 11.004770415978749 14.146414283742276 7.85888297009424 0 0 0
261 1 12.580782000756853 12.580782000756853 6.283646262758784 0 0 0
262 1 14.148275028036693 14.148275028036693 7.858780471169456 0 0 0
263 1 15.720954202951361 12.576707248265157 6.286318498892261 0 0 0
264 1 17.292879437609656 14.148835449913674 7.858365928850249 0 0 0
265 1 18.865088772679695 12.576697414616943 6.286359462695448 0 0 0
266 1 20.437334917340394 14.14891207170584 7.858352993212884 0 0 0
267 1 22.00954398257598 15.72102382282544 6.286304377629143 -1 0 0
268 1 1.5721884260546406 17.293063053726268 7.858420827245706 0 0 0
269 1 3.1443137523869766 15.720987272573089 6.286334215423001 0 0 0
270 1 4.716502778366885 17.29303796766037 7.858399269141532 0 0 0
271 1 6.288678842839013 15.720861939362822 6.2864016581281525 0 0 0
272 1 7.86070550602195 17.292879041527552 7.858366218016645 0 0 0
273 1 9.432833585571823 15.720954059854932 6.286318714104446 0 0 0
274 1 11.004770356273498 17.291963931556726 7.859013878374764 0 0 0
275 1 12.576707248265157 15.720954202951361 6.2863184988922605 0 0 0
276 1 14.148835449913674 17.292879437609656 7.858365928850249 0 0 0
277 1 15.720862474112526 15.720862474112527 6.286401000642811 0 0 0
278 1 17.29303808313138 17.293038083131382 7.858399135851381 0 0 0
279 1 18.865227311758776 15.720987439802586 6.28633396161798 0 0 0
280 1 20.43735240054864 17.293063083102727 7.8584207819222955 0 0 0
281 1 22.00954390673155 18.865246458038108 6.286351668306923 -1 0 0
282 1 1.5721716398326309 20.437369113682895 7.858404832268382 0 0 0
283 1 3.1442859974753645 18.86525476960403 6.286352905100659 0 0 0
284 1 4.7164776810403115 20.437352368052668 7.8584208403870255 0 0 0
285 1 6.288553421904559 18.865227126901267 6.286334154346267 0 0 0
286 1 7.8606286793735745 20.43733483716875 7.858353072382534 0 0 0
287 1 9.432843311571892 18.8650887131783 6.2863595320405095 0 0 0
288 1 11.004770351483545 20.437181359630202 7.8584364903395745 0 0 0
289 1 12.576697414616941 18.865088772679698 6.286359462695447 0 0 0
290 1 14.14891207170584 20.437334917340397 7.858352993212884 0 0 0
291 1 15.720987439802586 18.86522731175878 6.286333961617979 0 0 0
292 1 17.293063083102727 20.43735240054864 7.8584207819222955 0 0 0
293 1 18.865254830799152 18.865254830799152 6.286352813508729 0 0 0
294 1 20.437369121779284 20.437369121779284 7.858404809498135 0 0 0
295 1 22.00954386056004 22.00954386056004 9.430394951164368 -1 -1 0
296 1 1.5721655512512207 1.5721655512512205 11.002429371249422 0 0 0
297 1 3.1443333899172243 22.009543865531814 9.430424233279764 0 -1 0
298 1 4.716483413108505 1.5722174145942553 11.002464908165008 0 0 0
299 1 6.288615461907195 22.009543891025228 9.43047526376703 0 -1 0
300 1 7.860754197995205 1.5723551740924326 11.002478290508739 0 0 0
301 1 9.432702598593451 22.009543939451884 9.430402398322624 0 -1 0
302 1 11.004770335125077 1.5721783037311454 11.002476312403328 0 0 0
303 1 12.576838099515593 22.009543939484033 9.430402371682156 0 -1 0
304 1 14.148786474867796 1.5723551743909132 11.002478261312328 0 0 0
305 1 15.720925255200969 22.009543891042586 9.430475225853582 0 -1 0
306 1 17.293057260685476 1.5722174141867964 11.002464874018683 0 0 0
307 1 18.865207328226905 22.009543865540987 9.430424204089768 0 -1 0
308 1 20.437375123471263 1.5721655522627254 11.002429357119139 0 0 0
309 1 22.009543865531814 3.1443333899172243 9.430424233279764 -1 0 0
310 1 1.5722174145942565 4.716483413108506 11.002464908165008 0 0 0
311 1 3.144387227775249 3.1443872277752485 9.430468853036489 0 0 0
312 1 4.716735109517444 4.716735109517444 11.00247398308697 0 0 0
313 1 6.288695649466512 3.1445303418301167 9.43053499479684 0 0 0
314 1 7.861434676091019 4.717277771551941 11.002468422913854 0 0 0
315 1 9.432622276660904 3.1446826166559765 9.430242854769052 0 0 0
316 1 11.004770331693278 4.715470384554798 11.002466070088785 0 0 0
317 1 12.57691844727265 3.1446824984304187 9.430242799518096 0 0 0
318 1 14.148105986766387 4.717277774028153 11.002468384746274 0 0 0
319 1 15.720845088565328 3.144530291184155 9.43053494210291 0 0 0
320 1 17.29280555194565 4.716735110420007 11.002473907312226 0 0 0
321 1 18.86515350785454 3.1443872055930293 9.430468811006365 0 0 0
322 1 20.43732325192013 4.716483410869965 11.002464880289502 0 0 0
323 1 22.00954389102523 6.288615461907194 9.43047526376703 -1 0 0
324 1 1.5723551740924346 7.860754197995204 11.002478290508739 0 0 0
325 1 3.1445303418301163 6.288695649466511 9.430534994796842 0 0 0
326 1 4.717277771551941 7.861434676091018 11.002468422913854 0 0 0
327 1 6.288916534298676 6.288916534298676 9.430376795467634 0 0 0
328 1 7.860933160092887 7.860933160092888 11.002493774376212 0 0 0
329 1 9.432097715632276 6.291164239750055 9.429561721284188 0 0 0
330 1 11.00477032304939 7.841080132492442 11.00249131533284 0 0 0
331 1 12.577443304551466 6.291163530953148 9.42956136294844 0 0 0
332 1 14.148607474010198 7.860933178940575 11.002493737191909 0 0 0
333 1 15.72062431664575 6.288916424540423 9.430376637528761 0 0 0
334 1 17.29226287546307 7.861434674329347 11.002468238664179 0 0 0
335 1 18.865010464476043 6.288695606121221 9.430534905797892 0 0 0
336 1 20.437185476421142 7.860754197786223 11.002478232843819 0 0 0
337 1 22.009543939451884 9.432702598593451 9.430402398322624 -1 0 0
338 1 1.5721783037311448 11.004770335125077 11.002476312403328 0 0 0
339 1 3.144682616655977 9.432622276660906 9.430242854769052 0 0 0
340 1 4.715470384554797 11.004770331693278 11.002466070088785 0 0 0
341 1 6.291164239750054 9.432097715632276 9.429561721284188 0 0 0
342 1 7.841080132492442 11.00477032304939 11.002491315332842 0 0 0
343 1 9.423979327086855 9.423979327086855 9.428091780012496 0 0 0
344 1 20.43748080893207 20.43748080893207 20.435173720791887 0 0 0
345 1 12.585566057197012 9.423975217125571 9.428087120269353 0 0 0
346 1 14.168460517932823 11.004770323610312 11.00248845452983 0 0 0
347 1 15.718377715041402 9.432097351192409 9.429560673635391 0 0 0
348 1 17.294070267271582 11.004770331757426 11.002465626311425 0 0 0
349 1 18.864858415580322 9.432622229450581 9.430242625203457 0 0 0
350 1 20.437362341818513 11.004770335115936 11.00247623102378 0 0 0
351 1 22.009543939484033 12.576838099515593 9.430402371682158 -1 0 0
352 1 1.5723551743909112 14.148786474867798 11.00247826131233 0 0 0
353 1 3.144682498430419 12.576918447272648 9.430242799518094 0 0 0
354 1 4.717277774028155 14.148105986766387 11.002468384746274 0 0 0
355 1 6.291163530953148 12.577443304551466 9.42956136294844 0 0 0
356 1 7.8609331789405745 14.1486074740102 11.002493737191909 0 0 0
357 1 9.423975217125573 12.585566057197012 9.428087120269353 0 0 0
358 1 11.004770323610312 14.168460517932823 11.00248845452983 0 0 0
359 1 12.585570169884232 12.585570169884232 9.428082460491927 0 0 0
360 1 14.14860745904327 14.14860745904327 11.002493700047546 0 0 0
361 1 15.718378424263312 12.577443669236663 9.429560315172298 0 0 0
362 1 17.292262873718325 14.148105988697152 11.002468200471515 0 0 0
363 1 18.86485853395781 12.576918494438228 9.430242569911929 0 0 0
364 1 20.437185476271246 14.148786475055687 11.00247820365528 0 0 0
365 1 22.009543891042586 15.720925255200969 9.430475225853582 -1 0 0
366 1 1.5722174141867966 17.293057260685476 11.002464874018685 0 0 0
367 1 3.144530291184155 15.720845088565328 9.430534942102907 0 0 0
368 1 4.716735110420007 17.29280555194565 11.002473907312226 0 0 0
369 1 6.288916424540423 15.72062431664575 9.430376637528761 0 0 0
370 1 7.861434674329346 17.292262875463067 11.002468238664177 0 0 0
371 1 9.432097351192409 15.718377715041404 9.429560673635391 0 0 0
372 1 11.004770331757426 17.294070267271582 11.002465626311423 0 0 0
373 1 12.577443669236665 15.718378424263312 9.429560315172298 0 0 0
374 1 14.148105988697154 17.292262873718325 11.002468200471515 0 0 0
375 1 15.72062442633526 15.72062442633526 9.430376478902767 0 0 0
376 1 17.292805550812066 17.292805550812066 11.002473831472685 0 0 0
377 1 18.86501051519083 15.720845131975851 9.43053485297409 0 0 0
378 1 20.437323252248603 17.29305726288537 11.00246484616489 0 0 0
379 1 22.009543865540987 18.865207328226905 9.430424204089768 -1 0 0
380 1 1.5721655522627267 20.437375123471263 11.002429357119139 0 0 0
381 1 3.1443872055930293 18.865153507854544 9.430468811006367 0 0 0
382 1 4.716483410869964 20.43732325192013 11.002464880289502 0 0 0
383 1 6.288695606121222 18.865010464476043 9.430534905797892 0 0 0
384 1 7.860754197786224 20.437185476421146 11.002478232843817 0 0 0
385 1 9.432622229450583 18.864858415580322 9.430242625203455 0 0 0
386 1 11.004770335115937 20.437362341818513 11.00247623102378 0 0 0
387 1 12.576918494438228 18.864858533957815 9.43024256991193 0 0 0
388 1 14.148786475055687 20.437185476271246 11.002478203655281 0 0 0
389 1 15.720845131975851 18.86501051519083 9.430534852974091 0 0 0
390 1 17.29305726288537 20.437323252248603 11.002464846164893 0 0 0
391 1 18.865153529972254 18.865153529972254 9.430468769083129 0 0 0
392 1 20.437375122444553 20.437375122444553 11.002429343007492 0 0 0
393 1 22.009543815443678 22.009543815443678 12.57448108408739 -1 -1 0
394 1 1.5721349674753766 1.5721349674753782 14.146542575510951 0 0 0
395 1 3.1442915238402245 22.009543803442146 12.574478933431926 0 -1 0
396 1 4.716414073943569 1.5721688337822373 14.146532377069155 0 0 0
397 1 6.288576047187446 22.00954376845366 12.574481574086205 0 -1 0
398 1 7.860582417463715 1.5722064767282158 14.146598842594665 0 0 0
399 1 9.432690501573472 22.009543708747977 12.57455932575587 0 -1 0
400 1 11.004770322413412 1.5723750026109844 14.146490409991554 0 0 0
401 1 12.576850146381425 22.009543708784282 12.574559299717302 0 -1 0
402 1 14.148958175407493 1.5722065569917791 14.146598760124018 0 0 0
403 1 15.720964585447533 22.00954376846513 12.574481533456028 0 -1 0
404 1 17.293126509747694 1.572168867072706 14.146532317017318 0 0 0
405 1 18.865249105982823 22.009543803432017 12.574478907547011 0 -1 0
406 1 20.437405615601506 1.5721349760652281 14.146542548850217 0 0 0
407 1 22.00954380344215 3.144291523840225 12.574478933431928 -1 0 0
408 1 1.572168833782237 4.716414073943567 14.146532377069155 0 0 0
409 1 3.1443587347756567 3.144358734775657 12.57445576357853 0 0 0
410 1 4.7164596846711 4.716459684671099 14.146561729449068 0 0 0
411 1 6.288667218473595 3.14452254902226 12.574416084111304 0 0 0
412 1 7.860667230752888 4.716645482458767 14.146573552995495 0 0 0
413 1 9.43260851362163 3.1446827058676896 12.574689068160268 0 0 0
414 1 11.004770312698344 4.71757276905718 14.145907252006527 0 0 0
415 1 12.576932101225001 3.144682822838142 12.574689014132158 0 0 0
416 1 14.148873143289771 4.716645877505583 14.146573258313259 0 0 0
417 1 15.72087338076525 3.144522602486351 12.574416026903037 0 0 0
418 1 17.293080781367536 4.716459803713827 14.146561592939518 0 0 0
419 1 18.865181871701523 3.144358755535083 12.574455719248412 0 0 0
420 1 20.437371669758676 4.716414101640084 14.146532329258157 0 0 0
421 1 22.00954376845366 6.288576047187445 12.574481574086205 -1 0 0
422 1 1.5722064767282165 7.860582417463714 14.146598842594665 0 0 0
423 1 3.1445225490222604 6.288667218473595 12.574416084111302 0 0 0
424 1 4.716645482458768 7.860667230752888 14.146573552995493 0 0 0
425 1 6.2889013288155295 6.2889013288155295 12.574572224821527 0 0 0
426 1 7.86126474057142 7.86126474057142 14.146193539643793 0 0 0
427 1 9.432087908144085 6.291161456219875 12.575400949778258 0 0 0
428 1 11.004770237722425 7.863128658171623 14.146095439696818 0 0 0
429 1 12.577452381334039 6.291162178725295 12.575400592392155 0 0 0
430 1 14.148274205188617 7.861266161083239 14.146191822105134 0 0 0
431 1 15.720639126574849 6.288901446627134 12.574572057353196 0 0 0
432 1 17.292894444137925 7.860667541532488 14.146573038288306 0 0 0
433 1 18.865017957868965 6.288667261680794 12.574415991645736 0 0 0
434 1 20.43733381773296 7.860582468551966 14.146598730191666 0 0 0
435 1 22.009543708747977 9.432690501573472 12.57455932575587 -1 0 0
436 1 1.5723750026109844 11.004770322413412 14.146490409991552 0 0 0
437 1 3.1446827058676887 9.43260851362163 12.574689068160268 0 0 0
438 1 4.717572769057179 11.004770312698346 14.145907252006529 0 0 0
439 1 6.291161456219877 9.432087908144085 12.575400949778258 0 0 0
440 1 7.8631286581716235 11.004770237722424 14.146095439696817 0 0 0
441 1 9.423980475460425 9.423980475460425 12.576898332074773 0 0 0