LAMMPS data file via write_data, version 2 Aug 2023, timestep = 11, units = metal

686 atoms
3 atom types

0 22.009546999999998 xlo xhi
0 22.009546999999998 ylo yhi
0 22.009546999999998 zlo zhi

Masses

1 183.84
2 1.008
3 4.0026

Atoms # atomic

1 1 22.009545809746935 22.009545809746935 22.00954543637764 -1 -1 -1
2 1 1.5723232594009136 1.572323259400913 1.5723229535950733 0 0 0
3 1 3.144460615056734 22.009545668769327 22.009545251567687 0 -1 -1
4 1 4.716662397303208 1.5723424334170424 1.572342046403174 0 0 0
5 1 6.28870052121275 22.009545466307205 22.009544986315685 0 -1 -1
6 1 7.860782354326575 1.572365399801509 1.5723649748814594 0 0 0
7 1 9.432767903065645 22.009545514079303 22.009545049938342 0 -1 -1
8 1 11.004774541220948 1.5723671869222242 1.572366758097084 0 0 0
9 1 12.576780983173109 22.00954551908075 22.009545056773522 0 -1 -1
10 1 14.148765752770368 1.5723660842522262 1.572365661937127 0 0 0
11 1 15.720846828478647 22.00954547551938 22.00954499908305 0 -1 -1
12 1 17.292883648431346 1.572343302129043 1.5723429183818647 0 0 0
13 1 18.86508478589231 22.00954568032865 22.00954526694364 0 -1 -1
14 1 20.437221416233864 1.5723236290860612 1.572323324765276 0 0 0
15 1 22.009545668769327 3.1444606150567345 22.009545251567687 -1 0 -1
16 1 1.5723424334170424 4.7166623973032085 1.572342046403172 0 0 0
17 1 3.144587832068757 3.144587832068758 22.00954499164714 0 0 -1
18 1 4.716877154618872 4.716877154618872 1.5725819043549367 0 0 0
19 1 6.28878404730642 3.1446166496529684 22.009544354774807 0 0 -1
20 1 7.860924508315385 4.716935584096758 1.572590406653045 0 0 0
21 1 9.432797357268464 3.1446376689694993 22.009544120419356 0 0 -1
22 1 11.004774224121343 4.7169519812016185 1.572574612040579 0 0 0
23 1 12.576751495489585 3.1446382522387144 22.00954413605377 0 0 -1
24 1 14.148622744210428 4.716937317958476 1.5725916962554145 0 0 0
25 1 15.720762865076468 3.144618022841502 22.009544387557895 0 0 -1
26 1 17.292668055188162 4.716879063568643 1.572583219200327 0 0 0
27 1 18.864957242268492 3.144588875494153 22.009545016930698 0 0 -1
28 1 20.43720158648914 4.7166632111528255 1.5723425504551753 0 0 0
29 1 22.009545466307205 6.28870052121275 22.009544986315685 -1 0 -1
30 1 1.5723653998015081 7.860782354326576 1.5723649748814608 0 0 0
31 1 3.1446166496529684 6.288784047306419 22.009544354774807 0 0 -1
32 1 4.716935584096757 7.860924508315386 1.572590406653045 0 0 0
33 1 6.288825369816008 6.288825369816008 22.009543060999036 0 0 -1
34 1 7.860809614007403 7.860809614007403 1.5727411579380486 0 0 0
35 1 9.432855687351438 6.288957567159466 22.009542032980555 0 0 -1
36 1 11.00477328296786 7.861040743501945 1.572863724277662 0 0 0
37 1 12.576692431004425 6.2889584543338515 22.00954206482665 0 0 -1
38 1 14.148735963353616 7.860811252335291 1.572743007868441 0 0 0
39 1 15.72072070328247 6.288827242684566 22.00954310555554 0 0 -1
40 1 17.292608479860476 7.860926257186329 1.5725923759183233 0 0 0
41 1 18.864927772327402 6.2887854700027495 22.009544398707543 0 0 -1
42 1 20.43717824821948 7.860782996582023 1.5723655996132235 0 0 0
43 1 22.0095455140793 9.432767903065647 22.009545049938346 -1 0 -1
44 1 1.5723671869222207 11.004774541220947 1.5723667580970855 0 0 0
45 1 3.1446376689695 9.432797357268464 22.009544120419353 0 0 -1
46 1 4.716951981201618 11.004774224121343 1.5725746120405806 0 0 0
47 1 6.288957567159466 9.432855687351438 22.009542032980555 0 0 -1
48 1 7.861040743501945 11.00477328296786 1.5728637242776622 0 0 0
49 1 9.432696202983001 9.432696202983001 22.009540594842335 0 0 -1
50 1 11.00477268659306 11.00477268659306 1.5722176571872921 0 0 0
51 1 12.576850693399154 9.432696689403206 22.00954063435436 0 0 -1
52 1 14.148503953157729 11.004773288804708 1.5728658406227636 0 0 0
53 1 15.7205877664829 9.43285664710542 22.009542091230664 0 0 -1
54 1 17.292592029015278 11.00477422825997 1.5725765422903315 0 0 0
55 1 18.864906720052094 9.432797905368131 22.009544182364486 0 0 -1
56 1 20.437176516443643 11.004774539675603 1.572367301717827 0 0 0
57 1 22.009545519080746 12.57678098317311 22.009545056773522 -1 0 -1
58 1 1.5723660842522265 14.14876575277037 1.5723656619371267 0 0 0
59 1 3.144638252238715 12.576751495489587 22.00954413605377 0 0 -1
60 1 4.716937317958475 14.148622744210428 1.5725916962554143 0 0 0
61 1 6.288958454333852 12.576692431004425 22.00954206482665 0 0 -1
62 1 7.860811252335291 14.148735963353618 1.5727430078684406 0 0 0
63 1 9.432696689403205 12.576850693399154 22.00954063435436 0 0 -1
64 1 11.004773288804708 14.148503953157727 1.5728658406227634 0 0 0
65 1 12.576850211662215 12.576850211662217 22.009540673619828 0 0 -1
66 1 14.14873434474731 14.148734344747313 1.572744841689963 0 0 0
67 1 15.720586886841614 12.57669147558802 22.00954212003239 0 0 -1
68 1 17.292606769995288 14.148621006819189 1.5725936479985747 0 0 0
69 1 18.86490614538809 12.576750942884738 22.009544195719965 0 0 -1
70 1 20.43717759112428 14.148765112562986 1.5723662737823727 0 0 0
71 1 22.00954547551938 15.720846828478647 22.00954499908305 -1 0 -1
72 1 1.5723433021290427 17.292883648431346 1.5723429183818647 0 0 0
73 1 3.1446180228415015 15.720762865076468 22.009544387557895 0 0 -1
74 1 4.716879063568643 17.292668055188162 1.5725832192003288 0 0 0
75 1 6.288827242684567 15.720720703282469 22.00954310555554 0 0 -1
76 1 7.860926257186329 17.292608479860476 1.572592375918323 0 0 0
77 1 9.43285664710542 15.7205877664829 22.009542091230664 0 0 -1
78 1 11.00477422825997 17.292592029015278 1.572576542290329 0 0 0
79 1 12.57669147558802 15.720586886841614 22.00954212003239 0 0 -1
80 1 14.148621006819187 17.292606769995285 1.5725936479985743 0 0 0
81 1 15.720718838369578 15.720718838369578 22.0095431397807 0 0 -1
82 1 17.292666171016904 17.292666171016904 1.5725845237375242 0 0 0
83 1 18.864926427725504 15.720761447913803 22.009544421876054 0 0 -1
84 1 20.43720075284914 17.292882844325252 1.5723434069042255 0 0 0
85 1 22.00954568032865 18.86508478589231 22.00954526694364 -1 0 -1
86 1 1.5723236290860596 20.437221416233864 1.5723233247652748 0 0 0
87 1 3.144588875494153 18.864957242268492 22.009545016930694 0 0 -1
88 1 4.716663211152825 20.43720158648914 1.5723425504551756 0 0 0
89 1 6.288785470002749 18.864927772327402 22.009544398707543 0 0 -1
90 1 7.8607829965820235 20.437178248219485 1.5723655996132244 0 0 0
91 1 9.432797905368133 18.864906720052094 22.009544182364486 0 0 -1
92 1 11.004774539675603 20.437176516443643 1.5723673017178277 0 0 0
93 1 12.576750942884736 18.86490614538809 22.00954419571997 0 0 -1
94 1 14.148765112562987 20.43717759112428 1.5723662737823725 0 0 0
95 1 15.720761447913803 18.864926427725504 22.009544421876054 0 0 -1
96 1 17.292882844325252 20.43720075284914 1.5723434069042252 0 0 0
97 1 18.86495621754394 18.86495621754394 22.009545038523836 0 0 -1
98 1 20.43722106247519 20.437221062475185 1.5723236908309275 0 0 0
99 1 22.009545667809405 22.0095456678094 3.1444603637988555 -1 -1 0
100 1 1.572342376515665 1.5723423765156646 4.71666237534816 0 0 0
101 1 3.1445876690307055 22.00954546813868 3.14458753070128 0 -1 0
102 1 4.716877037282256 1.5725823615128087 4.716877055289845 0 0 0
103 1 6.2887838254364015 22.009544982152583 3.1446162452129856 0 -1 0
104 1 7.860924400800935 1.5725910353152135 4.716935384012996 0 0 0
105 1 9.432797270807706 22.009544801148117 3.1446372569985637 0 -1 0
106 1 11.004774224895801 1.5725753023228661 4.716951746954642 0 0 0
107 1 12.57675158189248 22.009544813663602 3.1446378413542657 0 -1 0
108 1 14.148622852912982 1.5725923195521099 4.7169371191229885 0 0 0
109 1 15.720763086892289 22.009545008436326 3.1446176211149717 0 -1 0
110 1 17.292668173520642 1.572583667506022 4.7168789642739775 0 0 0
111 1 18.864957402067713 22.009545487742702 3.1445885761700474 0 -1 0
112 1 20.437201643211136 1.5723428804379478 4.716663188545537 0 0 0
113 1 22.00954546813868 3.144587669030706 3.1445875307012803 -1 0 0
114 1 1.5725823615128087 4.716877037282255 4.716877055289846 0 0 0
115 1 3.144799514232281 3.144799514232281 3.144799338468748 0 0 0
116 1 4.7177766888073815 4.717776688807381 4.717776557919104 0 0 0
117 1 6.288922826914864 3.1448308087942864 3.144830519870163 0 0 0
118 1 7.861295950385751 4.717613186499292 4.71761275816044 0 0 0
119 1 9.432872473182266 3.14486705296133 3.1448666773521636 0 0 0
120 1 11.004772175695187 4.717663829844941 4.717663245579407 0 0 0
121 1 12.576675457382038 3.144868026053225 3.1448676524087915 0 0 0
122 1 14.148247823136947 4.717616232383881 4.717615811502486 0 0 0
123 1 15.720623254819344 3.1448328864031323 3.1448326003947042 0 0 0
124 1 17.29176634427251 4.717779809457679 4.717779683216229 0 0 0
125 1 18.864744933095274 3.1448009418092457 3.144800768043797 0 0 0
126 1 20.436960425544072 4.716878188402794 4.716878208814829 0 0 0
127 1 22.009544982152587 6.288783825436402 3.144616245212985 -1 0 0
128 1 1.5725910353152135 7.860924400800935 4.716935384012995 0 0 0
129 1 3.144830808794286 6.288922826914865 3.1448305198701636 0 0 0
130 1 4.717613186499292 7.861295950385751 4.717612758160439 0 0 0
131 1 6.289310476198444 6.289310476198444 3.145533469032494 0 0 0
132 1 7.8616939755354815 7.861693975535482 4.719109449928223 0 0 0
133 1 9.43310266387649 6.2894527207027755 3.1456164863471145 0 0 0
134 1 11.004768690060505 7.862739557493805 4.719623020183895 0 0 0
135 1 12.576442205629926 6.289454152530956 3.1456182167954694 0 0 0
136 1 14.147844411425858 7.861696729194768 4.719113767032934 0 0 0
137 1 15.720233387932625 6.2893133056131045 3.1455366807135037 0 0 0
138 1 17.291926679727975 7.861298884591815 4.717617173460854 0 0 0
139 1 18.864712176383833 6.288924763359466 3.14483267868907 0 0 0
140 1 20.43695000633477 7.860925460421312 4.716937054649474 0 0 0
141 1 22.009544801148117 9.432797270807706 3.144637256998562 -1 0 0
142 1 1.572575302322867 11.004774224895801 4.716951746954641 0 0 0
143 1 3.144867052961329 9.432872473182266 3.1448666773521636 0 0 0
144 1 4.71766382984494 11.004772175695187 4.717663245579408 0 0 0
145 1 6.2894527207027755 9.43310266387649 3.145616486347114 0 0 0
146 1 7.862739557493805 11.004768690060505 4.719623020183894 0 0 0
147 1 9.43256724913453 9.432567249134532 3.145472993091194 0 0 0
148 1 11.004766742463302 11.004766742463302 4.714162935141155 0 0 0
149 1 12.57697407159446 9.43256797788916 3.145475298602505 0 0 0
150 1 14.146795324322557 11.004768722603297 4.719628603928092 0 0 0
151 1 15.720088744465423 9.433104181654347 3.145620822860572 0 0 0
152 1 17.29187432260739 11.004772212889744 4.71766835791176 0 0 0
153 1 18.86467513225025 9.432873457331796 3.144869080189261 0 0 0
154 1 20.436965402869966 11.004774230410435 4.716953253355179 0 0 0
155 1 22.009544813663602 12.57675158189248 3.1446378413542653 -1 0 0
156 1 1.5725923195521085 14.148622852912982 4.716937119122988 0 0 0
157 1 3.1448680260532256 12.576675457382038 3.144867652408792 0 0 0
158 1 4.717616232383881 14.148247823136945 4.717615811502486 0 0 0
159 1 6.289454152530956 12.576442205629926 3.14561821679547 0 0 0
160 1 7.861696729194768 14.147844411425858 4.719113767032933 0 0 0
161 1 9.43256797788916 12.57697407159446 3.145475298602505 0 0 0
162 1 11.004768722603295 14.146795324322557 4.719628603928091 0 0 0
163 1 12.576973365195432 12.576973365195434 3.1454776004591327 0 0 0
164 1 14.14784171276469 14.14784171276469 4.719118078329904 0 0 0
165 1 15.720087338799148 12.576440726261746 3.1456225439273964 0 0 0
166 1 17.291923690429417 14.148244945775284 4.717620202112134 0 0 0
167 1 18.86467418312646 12.576674489565441 3.1448700366561604 0 0 0
168 1 20.436948780878918 14.148621821225674 4.7169387761452715 0 0 0
169 1 22.00954500843633 15.720763086892287 3.1446176211149726 -1 0 0
170 1 1.5725836675060219 17.292668173520642 4.7168789642739775 0 0 0
171 1 3.144832886403132 15.720623254819344 3.144832600394704 0 0 0
172 1 4.717779809457678 17.29176634427251 4.7177796832162295 0 0 0
173 1 6.289313305613105 15.720233387932625 3.1455366807135023 0 0 0
174 1 7.8612988845918155 17.291926679727972 4.717617173460853 0 0 0
175 1 9.433104181654345 15.720088744465423 3.1456208228605727 0 0 0
176 1 11.004772212889744 17.29187432260739 4.71766835791176 0 0 0
177 1 12.576440726261746 15.720087338799146 3.145622543927395 0 0 0
178 1 14.148244945775284 17.291923690429417 4.717620202112134 0 0 0
179 1 15.720230600919967 15.720230600919967 3.1455398706620414 0 0 0
180 1 17.2917632836762 17.2917632836762 4.717782777316297 0 0 0
181 1 18.86471014623783 15.720621347957389 3.1448347317656755 0 0 0
182 1 20.436959177472364 17.292667042514196 4.716880105730995 0 0 0
183 1 22.009545487742702 18.864957402067713 3.1445885761700474 -1 0 0
184 1 1.5723428804379473 20.437201643211136 4.716663188545537 0 0 0
185 1 3.1448009418092457 18.86474493309527 3.144800768043796 0 0 0
186 1 4.716878188402795 20.436960425544072 4.716878208814828 0 0 0
187 1 6.288924763359465 18.864712176383833 3.14483267868907 0 0 0
188 1 7.860925460421312 20.43695000633477 4.716937054649474 0 0 0
189 1 9.432873457331796 18.864675132250255 3.144869080189261 0 0 0
190 1 11.004774230410433 20.436965402869966 4.716953253355178 0 0 0
191 1 12.576674489565441 18.86467418312646 3.1448700366561604 0 0 0
192 1 14.148621821225674 20.436948780878915 4.7169387761452715 0 0 0
193 1 15.720621347957389 18.86471014623783 3.1448347317656764 0 0 0
194 1 17.292667042514196 20.436959177472364 4.716880105730994 0 0 0
195 1 18.86474353529487 18.86474353529487 3.1448021782460978 0 0 0
196 1 20.437201168327775 20.437201168327775 4.716663991403961 0 0 0
197 1 22.00954546694459 22.009545466944587 6.288700577216384 -1 -1 0
198 1 1.5723653907680728 1.5723653907680712 7.860782629075109 0 0 0
199 1 3.144616434354959 22.009544982651544 6.288784034955828 0 -1 0
200 1 4.716935575464319 1.5725911400159827 7.860924714631809 0 0 0
201 1 6.288825077200818 22.00954399756496 6.288825227124827 0 -1 0
202 1 7.860809586955407 1.5727422183129476 7.8608096221237025 0 0 0
203 1 9.432855536333673 22.009543213028632 6.288957310959561 0 -1 0
204 1 11.00477328593686 1.5728649374714063 7.861040620167708 0 0 0
205 1 12.576692579989151 22.00954323734627 6.288958198919654 0 -1 0
206 1 14.148735996386753 1.572744058762804 7.8608112614672905 0 0 0
207 1 15.720720997220303 22.009544032434533 6.288827101436251 0 -1 0
208 1 17.292608492496452 1.5725930921303888 7.86092646314547 0 0 0
209 1 18.86492798226252 22.009545016490524 6.288785458106667 0 -1 0
210 1 20.43717826308816 1.572366012313368 7.860783269429807 0 0 0
211 1 22.009544982651544 3.14461643435496 6.288784034955827 -1 0 0
212 1 1.5725911400159824 4.716935575464319 7.860924714631808 0 0 0
213 1 3.1448308237466795 3.1448308237466795 6.288922985362526 0 0 0
214 1 4.717613396088551 4.717613396088551 7.8612958981553716 0 0 0
215 1 6.289310465191348 3.145534028293302 6.289310416847023 0 0 0
216 1 7.8616941174496375 4.7191107270833195 7.861693194388282 0 0 0
217 1 9.433102672251051 3.1456173122456916 6.289452415914278 0 0 0
218 1 11.004768690700176 4.719624679715988 7.862738363744374 0 0 0
219 1 12.576442203883921 3.1456190341157577 6.289453847026231 0 0 0
220 1 14.147844286931878 4.719115033455181 7.8616959554696 0 0 0
221 1 15.720233401317142 3.1455372303695674 6.289313250186139 0 0 0
222 1 17.29192647199285 4.717617800047921 7.8612988420672325 0 0 0
223 1 18.864712167392014 3.1448329763252607 6.28892492152958 0 0 0
224 1 20.43694991088436 4.7169372385638715 7.860925775895279 0 0 0
225 1 22.00954399756496 6.288825077200818 6.2888252271248275 -1 0 0
226 1 1.5727422183129476 7.860809586955407 7.8608096221237025 0 0 0
227 1 3.1455340282933015 6.289310465191347 6.289310416847023 0 0 0
228 1 4.7191107270833195 7.8616941174496375 7.861693194388283 0 0 0
229 1 6.292146003146924 6.292146003146923 6.2921452969528895 0 0 0
230 1 7.870697393966116 7.870697393966116 7.8706947840448835 0 0 0
231 1 9.433934210215886 6.2911871154972765 6.291185738558589 0 0 0
232 1 11.004761340963064 7.868943046330392 7.8689397298045884 0 0 0
233 1 12.57560173861491 6.291189518675898 6.291188141778289 0 0 0
234 1 14.138829364291118 7.87070097113106 7.8706983700162905 0 0 0
235 1 15.7173921352705 6.292150391757342 6.292149703784495 0 0 0
236 1 17.29042385237382 7.861697753377272 7.861696848324427 0 0 0
237 1 18.864006215924306 6.289313238978497 6.289313196686449 0 0 0
238 1 20.436796163568594 7.860811050536095 7.860811092681326 0 0 0
239 1 22.009543213028632 9.432855536333673 6.288957310959561 -1 0 0
240 1 1.5728649374714065 11.00477328593686 7.861040620167708 0 0 0
241 1 3.1456173122456916 9.433102672251053 6.289452415914278 0 0 0
242 1 4.719624679715988 11.004768690700176 7.862738363744374 0 0 0
243 1 6.2911871154972765 9.433934210215886 6.29118573855859 0 0 0
244 1 7.868943046330392 11.004761340963064 7.868939729804589 0 0 0
245 1 9.432347940564453 9.432347940564453 6.294608849206594 0 0 0
246 1 11.00475856086566 11.004758560865662 7.830814258581582 0 0 0
247 1 12.577179025811267 9.43234899692055 6.294611980404784 0 0 0
248 1 14.140578121591796 11.004761372179388 7.868944416652281 0 0 0
249 1 15.71834490271126 9.433936417732783 6.2911919527666775 0 0 0
250 1 17.28990616264431 11.004768757320477 7.86274290514582 0 0 0
251 1 18.863920141525174 9.43310421958082 6.289456023583894 0 0 0
252 1 20.43667222401385 11.004773305352044 7.861042140860001 0 0 0
253 1 22.009543237346275 12.576692579989151 6.288958198919654 -1 0 0
254 1 1.5727440587628043 14.148735996386755 7.8608112614672905 0 0 0
255 1 3.145619034115758 12.576442203883921 6.289453847026232 0 0 0
256 1 4.719115033455181 14.147844286931878 7.861695955469601 0 0 0
257 1 6.291189518675898 12.57560173861491 6.291188141778289 0 0 0
258 1 7.870700971131059 14.138829364291118 7.8706983700162905 0 0 0
259 1 9.43234899692055 12.577179025811267 6.294611980404784 0 0 0
260 1 11.004761372179388 14.140578121591794 7.868944416652281 0 0 0
261 1 12.57717799700565 12.57717799700565 6.294615111407127 0 0 0
262 1 14.138825823031693 14.138825823031695 7.870701983935042 0 0 0
263 1 15.718342539480037 12.575599638094026 6.291194351762546 0 0 0
264 1 17.290419604648097 14.147840747493863 7.8616996045019985 0 0 0
265 1 18.86391845318181 12.57644072557328 6.289457441731645 0 0 0
266 1 20.436794400580197 14.148734588621911 7.860812723707608 0 0 0
267 1 22.009544032434533 15.720720997220303 6.28882710143625 -1 0 0
268 1 1.5725930921303886 17.292608492496452 7.86092646314547 0 0 0
269 1 3.145537230369568 15.720233401317142 6.289313250186139 0 0 0
270 1 4.717617800047921 17.29192647199285 7.861298842067232 0 0 0
271 1 6.292150391757342 15.7173921352705 6.292149703784495 0 0 0
272 1 7.861697753377273 17.29042385237382 7.861696848324428 0 0 0
273 1 9.433936417732783 15.71834490271126 6.2911919527666775 0 0 0
274 1 11.004768757320475 17.28990616264431 7.86274290514582 0 0 0
275 1 12.575599638094028 15.718342539480036 6.291194351762545 0 0 0
276 1 14.147840747493863 17.290419604648097 7.861699604501998 0 0 0
277 1 15.717387809058037 15.717387809058039 6.292154119462661 0 0 0
278 1 17.29192217081558 17.29192217081558 7.861301774348503 0 0 0
279 1 18.86400310163591 15.720230694020607 6.289316006512546 0 0 0
280 1 20.436948054392204 17.29260686658355 7.860927508412855 0 0 0
281 1 22.00954501649052 18.86492798226252 6.288785458106666 -1 0 0
282 1 1.5723660123133667 20.437178263088164 7.860783269429807 0 0 0
283 1 3.1448329763252616 18.864712167392014 6.28892492152958 0 0 0
284 1 4.7169372385638715 20.43694991088436 7.860925775895278 0 0 0
285 1 6.289313238978497 18.864006215924306 6.289313196686449 0 0 0
286 1 7.860811050536095 20.436796163568594 7.860811092681327 0 0 0
287 1 9.433104219580821 18.863920141525174 6.289456023583893 0 0 0
288 1 11.004773305352044 20.43667222401385 7.861042140860001 0 0 0
289 1 12.57644072557328 18.86391845318181 6.289457441731644 0 0 0
290 1 14.148734588621911 20.436794400580197 7.860812723707607 0 0 0
291 1 15.720230694020607 18.86400310163591 6.289316006512546 0 0 0
292 1 17.29260686658355 20.436948054392207 7.860927508412856 0 0 0
293 1 18.86471007556316 18.86471007556316 6.28892683432509 0 0 0
294 1 20.437177689667053 20.437177689667053 7.86078390141772 0 0 0
295 1 22.00954551680353 22.00954551680353 9.432768198471596 -1 -1 0
296 1 1.5723672730444265 1.5723672730444265 11.004774866796586 0 0 0
297 1 3.1446375761268035 22.009544806576056 9.432797646720676 0 -1 0
298 1 4.71695221860879 1.5725756049405275 11.004774451493256 0 0 0
299 1 6.288957431231217 22.009543219017807 9.432855857437316 0 -1 0
300 1 7.861040979369091 1.5728652693609058 11.004773217515144 0 0 0
301 1 9.432696123854141 22.009542124737248 9.432696178002953 0 -1 0
302 1 11.004772691681149 1.5722194375640013 11.004772435138694 0 0 0
303 1 12.576850770268138 22.00954215420356 9.432696666201885 0 -1 0
304 1 14.148503726962826 1.572867375381766 11.004773223902616 0 0 0
305 1 15.720587905833606 22.009543263006133 9.432856816143243 0 -1 0
306 1 17.292591801224233 1.5725775139475133 11.00477445617282 0 0 0
307 1 18.864906809337686 22.009544853092038 9.432798192630672 0 -1 0
308 1 20.437176442357863 1.5723678113804673 11.004774864765986 0 0 0
309 1 22.009544806576052 3.1446375761268044 9.432797646720678 -1 0 0
310 1 1.5725756049405266 4.716952218608789 11.004774451493256 0 0 0
311 1 3.1448672806771096 3.1448672806771096 9.432872774327764 0 0 0
312 1 4.717664626091898 4.717664626091898 11.004771767002405 0 0 0
313 1 6.289453058651407 3.145617711205602 9.433102573477298 0 0 0
314 1 7.862740263535981 4.719625548692833 11.004767190573201 0 0 0
315 1 9.432567420379069 3.1454747035430035 9.432566643403181 0 0 0
316 1 11.004766755000869 4.714165992425893 11.004764639489082 0 0 0
317 1 12.5769739152905 3.145477000756014 9.432567378274136 0 0 0
318 1 14.146794634295178 4.719631121997385 11.004767231671256 0 0 0
319 1 15.720088418083328 3.1456220316410954 9.433104094193128 0 0 0
320 1 17.291873546705908 4.717669719328129 11.004771814002318 0 0 0
321 1 18.86467492211786 3.1448696681983574 9.43287375959363 0 0 0
322 1 20.43696512051195 4.71695371360001 11.004774457488203 0 0 0
323 1 22.009543219017807 6.288957431231216 9.432855857437316 -1 0 0
324 1 1.5728652693609053 7.86104097936909 11.004773217515144 0 0 0
325 1 3.1456177112056025 6.289453058651407 9.433102573477298 0 0 0
326 1 4.719625548692833 7.86274026353598 11.004767190573201 0 0 0
327 1 6.291187707166853 6.291187707166853 9.433932821970586 0 0 0
328 1 7.868943754071122 7.868943754071122 11.00475753560743 0 0 0
329 1 9.432348160576824 6.294611836864225 9.432345195911207 0 0 0
330 1 11.00475857287135 7.830818914102162 11.004753897993377 0 0 0
331 1 12.577178814742345 6.294614976005475 9.432346267132004 0 0 0
332 1 14.140577394373102 7.868948446578579 11.004757577736772 0 0 0
333 1 15.718344314855146 6.291193906975859 9.433935039852734 0 0 0
334 1 17.289905313457478 7.862744788223397 11.004767277366431 0 0 0
335 1 18.863919753544838 6.289456653305687 9.433104134787746 0 0 0
336 1 20.436671900719347 7.861042488549883 11.004773242538036 0 0 0
337 1 22.009542124737248 9.432696123854141 9.432696178002953 -1 0 0
338 1 1.5722194375640017 11.004772691681149 11.004772435138694 0 0 0
339 1 3.145474703543004 9.432567420379067 9.432566643403181 0 0 0
340 1 4.714165992425893 11.004766755000869 11.004764639489082 0 0 0
341 1 6.294611836864225 9.432348160576824 9.432345195911207 0 0 0
342 1 7.830818914102161 11.00475857287135 11.004753897993378 0 0 0
343 1 9.457511576018058 9.457511576018058 9.457506697164039 0 0 0
344 1 20.43722060083281 20.43722060083281 20.43722029636116 0 0 0
345 1 12.552003008762982 9.457512751844368 9.457507876817552 0 0 0
346 1 14.17869822471164 11.004758585206046 11.004753913665283 0 0 0
347 1 15.714912872832542 9.432350694546209 9.43234773773581 0 0 0
348 1 17.295361444771533 11.004766824058356 11.004764732746919 0 0 0
349 1 18.86405911305031 9.432569236332336 9.43256848134976 0 0 0
350 1 20.437316267399435 11.0047727084298 11.00477245690276 0 0 0
351 1 22.00954215420356 12.576850770268138 9.432696666201885 -1 0 0
352 1 1.5728673753817668 14.148503726962824 11.004773223902616 0 0 0
353 1 3.145477000756014 12.5769739152905 9.432567378274138 0 0 0
354 1 4.719631121997385 14.146794634295178 11.004767231671256 0 0 0
355 1 6.294614976005474 12.577178814742345 9.432346267132004 0 0 0
356 1 7.868948446578577 14.140577394373102 11.004757577736772 0 0 0
357 1 9.457512751844368 12.552003008762982 9.457507876817552 0 0 0
358 1 11.004758585206046 14.17869822471164 11.004753913665285 0 0 0
359 1 12.552001781743451 12.552001781743453 9.457509081500138 0 0 0
360 1 14.140572708351602 14.140572708351604 11.004757621482302 0 0 0
361 1 15.714909746861169 12.577176367697525 9.432348820703414 0 0 0
362 1 17.289899807013175 14.146790211274055 11.004767305303389 0 0 0
363 1 18.86405683995278 12.576972201173943 9.43256920928792 0 0 0
364 1 20.436669870875406 14.14850229268658 11.004773242580933 0 0 0
365 1 22.009543263006133 15.720587905833606 9.432856816143243 -1 0 0
366 1 1.5725775139475138 17.292591801224237 11.00477445617282 0 0 0
367 1 3.1456220316410963 15.720088418083328 9.433104094193126 0 0 0
368 1 4.717669719328129 17.291873546705908 11.004771814002318 0 0 0
369 1 6.291193906975859 15.718344314855146 9.433935039852734 0 0 0
370 1 7.862744788223399 17.289905313457478 11.004767277366431 0 0 0
371 1 9.432350694546209 15.714912872832542 9.43234773773581 0 0 0
372 1 11.004766824058354 17.295361444771533 11.004764732746919 0 0 0
373 1 12.577176367697525 15.714909746861167 9.432348820703414 0 0 0
374 1 14.146790211274057 17.289899807013175 11.004767305303389 0 0 0
375 1 15.718338185507474 15.718338185507474 9.433937242035654 0 0 0
376 1 17.29186857786545 17.291868577865454 11.004771847865511 0 0 0
377 1 18.863915552003952 15.720084924830239 9.433105644668032 0 0 0
378 1 20.436963316064 17.292590341378222 11.004774456515257 0 0 0
379 1 22.009544853092038 18.864906809337686 9.432798192630672 -1 0 0
380 1 1.5723678113804682 20.43717644235786 11.004774864765983 0 0 0
381 1 3.1448696681983574 18.86467492211786 9.43287375959363 0 0 0
382 1 4.716953713600011 20.43696512051195 11.004774457488203 0 0 0
383 1 6.289456653305688 18.863919753544838 9.433104134787746 0 0 0
384 1 7.861042488549883 20.436671900719347 11.004773242538034 0 0 0
385 1 9.432569236332336 18.86405911305031 9.43256848134976 0 0 0
386 1 11.0047727084298 20.437316267399435 11.00477245690276 0 0 0
387 1 12.576972201173943 18.864056839952784 9.432569209287921 0 0 0
388 1 14.14850229268658 20.436669870875406 11.004773242580933 0 0 0
389 1 15.720084924830239 18.863915552003952 9.433105644668032 0 0 0
390 1 17.292590341378222 20.436963316063995 11.004774456515257 0 0 0
391 1 18.864672629344994 18.864672629344994 9.432874727918591 0 0 0
392 1 20.437175960497452 20.437175960497452 11.004774860401165 0 0 0
393 1 22.009545523659572 22.009545523659575 12.57678127906925 -1 -1 0
394 1 1.572366286984067 1.5723662869840669 14.148765825102513 0 0 0
395 1 3.144638341599255 22.009544822270563 12.57675178533211 0 -1 0
396 1 4.7169378499491135 1.5725928229740067 14.148622620339843 0 0 0
397 1 6.288958596484022 22.00954325089325 12.57669260834712 0 -1 0
398 1 7.860811735569646 1.5727446306539103 14.148735519776453 0 0 0
399 1 9.43269676333293 22.009542164488227 12.576850682173186 0 -1 0
400 1 11.004773292454434 1.5728677001048375 14.148503366366606 0 0 0
401 1 12.576850137022285 22.00954219409828 12.57685020023063 0 -1 0
402 1 14.148733872420975 1.5727464517150167 14.148733905118661 0 0 0
403 1 15.720586750276455 22.00954329220164 12.576691655344767 0 -1 0
404 1 17.2926062477265 1.5725947550949406 14.14862088570487 0 0 0
405 1 18.864906054718382 22.009544866510353 12.576751233034509 0 -1 0
406 1 20.43717740132092 1.5723668941804951 14.14876518716388 0 0 0
407 1 22.009544822270563 3.1446383415992543 12.57675178533211 -1 0 0
408 1 1.5725928229740067 4.7169378499491135 14.148622620339843 0 0 0
409 1 3.1448685564483476 3.1448685564483476 12.576675449613846 0 0 0
410 1 4.717617391874557 4.717617391874557 14.148246872517904 0 0 0
411 1 6.289454933315682 3.1456199730667938 12.57644164061494 0 0 0
412 1 7.861697730575244 4.719116378147129 14.14784251856971 0 0 0
413 1 9.432568379029513 3.145477720785543 12.576972916445108 0 0 0
414 1 11.004768731825004 4.719631992497869 14.146792737642262 0 0 0
415 1 12.576972984343962 3.145480014284103 12.576972209166689 0 0 0
416 1 14.14784074424356 4.719120676668637 14.14783982786124 0 0 0
417 1 15.720086576407326 3.1456242840748585 12.576440166691883 0 0 0
418 1 17.291922547430328 4.717621766943557 14.148243999383478 0 0 0
419 1 18.864673675543063 3.1448709210643604 12.57667448385125 0 0 0
420 1 20.43694830304802 4.7169394962486 14.148621596015703 0 0 0
421 1 22.00954325089325 6.288958596484022 12.57669260834712 -1 0 0
422 1 1.572744630653911 7.860811735569646 14.148735519776451 0 0 0
423 1 3.1456199730667938 6.289454933315682 12.57644164061494 0 0 0
424 1 4.719116378147129 7.861697730575243 14.14784251856971 0 0 0
425 1 6.291190855690976 6.291190855690976 12.575599680507368 0 0 0
426 1 7.870702083910681 7.870702083910681 14.138825643988271 0 0 0
427 1 9.432349552242465 6.294615942921491 12.57717551062831 0 0 0
428 1 11.004761382778288 7.868949185222656 14.140573338755818 0 0 0
429 1 12.577177459309178 6.294619081319364 12.57717447590437 0 0 0
430 1 14.13882472335128 7.87070569692866 14.138822107458214 0 0 0
431 1 15.718341220023875 6.291197048939016 12.575597599414484 0 0 0
432 1 17.290418279427435 7.861701361713053 14.147838991197908 0 0 0
433 1 18.863917534016494 6.2894585127224545 12.576440167608668 0 0 0
434 1 20.43679385271671 7.86081318855641 14.148734122531806 0 0 0
435 1 22.009542164488227 9.432696763332928 12.576850682173186 -1 0 0
436 1 1.572867700104837 11.004773292454434 14.148503366366606 0 0 0
437 1 3.1454777207855433 9.432568379029513 12.576972916445108 0 0 0
438 1 4.7196319924978685 11.004768731825003 14.14679273764226 0 0 0
439 1 6.294615942921492 9.432349552242465 12.57717551062831 0 0 0
440 1 7.8689491852226565 11.004761382778288 14.140573338755818 0 0 0
441 1 9.457513099741247 9.457513099741249 12.551997761921045 0 0 0