LAMMPS data file via write_data, version 2 Aug 2023, timestep = 21, units = metal

688 atoms
3 atom types

0 22.009546999999998 xlo xhi
0 22.009546999999998 ylo yhi
0 22.009546999999998 zlo zhi

Masses

1 183.84
2 1.008
3 4.0026

Atoms # atomic

1 1 22.00791152180498 22.009543835360894 22.007258109165143 -1 -1 -1
2 1 1.570192364669207 1.5719244596707567 1.5696864071315453 0 0 0
3 1 3.1421963995625553 22.00954383706108 22.0072580290602 0 -1 -1
4 1 4.7141064252430835 1.5718540501453695 1.5696367427703424 0 0 0
5 1 6.286264383777675 22.009543838412483 22.007258156760063 0 -1 -1
6 1 7.858327871661034 1.5718314480311173 1.5696115340600074 0 0 0
7 1 9.43053127724488 22.009543838209044 22.00725813537391 0 -1 -1
8 1 11.00274618243644 1.5717820522592822 1.5695605819689054 0 0 0
9 1 12.575019666312633 22.009543837114617 22.007258292610075 0 -1 -1
10 1 14.147306054585957 1.5717464984194693 1.5695370007953464 0 0 0
11 1 15.719546481434412 22.009543835314783 22.00725822101185 0 -1 -1
12 1 17.291842410936333 1.5717706716383155 1.569541334626545 0 0 0
13 1 18.863949398869924 22.00954383481266 22.007258125019824 0 -1 -1
14 1 20.435994150258438 1.5718766308547987 1.5696254335462143 0 0 0
15 1 22.007788681564616 3.1439634864906636 22.007258024757267 -1 0 -1
16 1 1.56992136564393 4.7160322633088505 1.569607231280528 0 0 0
17 1 3.1419492470537485 3.1438467788929074 22.007257936225567 0 0 -1
18 1 4.713625913921212 4.715664315283676 1.5694274932204502 0 0 0
19 1 6.286100782090509 3.1437473637423756 22.007257885207245 0 0 -1
20 1 7.858141592113607 4.715577216570511 1.569423285969936 0 0 0
21 1 9.430498069090024 3.1436732452205853 22.00725804885017 0 0 -1
22 1 11.002767040988093 4.7154753644599126 1.5693655877548889 0 0 0
23 1 12.575052643776932 3.143587151936812 22.007258016809182 0 0 -1
24 1 14.147468170094639 4.715398620061667 1.5693389906177653 0 0 0
25 1 15.719647076958378 3.143600117764104 22.00725811052858 0 0 -1
26 1 17.292111866938185 4.715497598331659 1.5693226319205646 0 0 0
27 1 18.864027726868308 3.143730111714928 22.007258019921014 0 0 -1
28 1 20.43583611631321 4.715991607750366 1.569587706648036 0 0 0
29 1 22.007536722370425 6.2882559537947635 22.00725796503244 -1 0 -1
30 1 1.569697406459368 7.86040452252268 1.569604771124451 0 0 0
31 1 3.141691520837374 6.288151911186679 22.00725770406493 0 0 -1
32 1 4.7134936333916775 7.860254780627479 1.5694518311647536 0 0 0
33 1 6.28553300140565 6.287622426965393 22.007257347236013 0 0 -1
34 1 7.857453473462753 7.85952677251452 1.5687090839185835 0 0 0
35 1 9.430376911557412 6.287585884005986 22.007257366521806 0 0 -1
36 1 11.002812411713293 7.859651460837529 1.5688624466273882 0 0 0
37 1 12.575186236693536 6.287488440966034 22.00725749159877 0 0 -1
38 1 14.148040881173758 7.859441411910046 1.5687253941597818 0 0 0
39 1 15.720029812090813 6.287485980317122 22.007257713920584 0 0 -1
40 1 17.291862785332082 7.860199729696205 1.5694794587087484 0 0 0
41 1 18.86383806720284 6.288089800538992 22.007257867792003 0 0 -1
42 1 20.435565234275938 7.860370794504401 1.569629285801149 0 0 0
43 1 22.007332224729097 9.432582606914345 22.00725782846484 -1 0 -1
44 1 1.5695859367145075 11.00477033737376 1.5696041378592238 0 0 0
45 1 3.141525668133799 9.43257272079475 22.007257449441568 0 0 -1
46 1 4.713426594382218 11.004770338947319 1.5694501007743833 0 0 0
47 1 6.285507836404575 9.432434619444441 22.007256935904095 0 0 -1
48 1 7.857617137184788 11.004770343796269 1.5689306849992926 0 0 0
49 1 9.429979998411103 9.432026910535603 22.007256168786373 0 0 -1
50 1 11.002838579804076 11.004770342939976 1.5673477869278232 0 0 0
51 1 12.575571247840758 9.431996990424452 22.007256417134176 0 0 -1
52 1 14.147802391126408 11.004770337568901 1.5690870517361448 0 0 0
53 1 15.719856645670276 9.432406013212841 22.00725737179505 0 0 -1
54 1 17.291750008977914 11.004770334635445 1.569518170084103 0 0 0
55 1 18.863644519272373 9.432532683059584 22.00725785931168 0 0 -1
56 1 20.43543634982342 11.00477033588278 1.5696399438925277 0 0 0
57 1 22.00733222368745 12.576958064431977 22.00725780576765 -1 0 -1
58 1 1.56969740077148 14.1491361595768 1.5696047267391635 0 0 0
59 1 3.141525666714867 12.576967951418608 22.007257420319146 0 0 -1
60 1 4.713493619447572 14.149285905735756 1.569451760847294 0 0 0
61 1 6.285507835281373 12.577106053281701 22.00725689011666 0 0 -1
62 1 7.857453457060824 14.150013932799279 1.568708955521722 0 0 0
63 1 9.429979997945372 12.577513762485994 22.00725609070512 0 0 -1
64 1 11.00281241045032 14.149889257983586 1.5688622814625108 0 0 0
65 1 12.57557124723106 12.57754368116236 22.00725631542062 0 0 -1
66 1 14.148040905743763 14.150099296401493 1.5687252267664265 0 0 0
67 1 15.719856644868877 12.57713465738714 22.007257313549005 0 0 -1
68 1 17.291862801536766 14.149340951014375 1.5694793739523034 0 0 0
69 1 18.863644518054535 12.577007987410221 22.007257824775543 0 0 -1
70 1 20.43556524087907 14.14916988430741 1.569629236974495 0 0 0
71 1 22.007536719458624 15.72128471748627 22.007257911380965 -1 0 -1
72 1 1.5699213586560985 17.293508430082696 1.569607171089802 0 0 0
73 1 3.141691518048461 15.721388761907889 22.00725763743356 0 0 -1
74 1 4.713625890943832 17.293876396959586 1.5694273961545373 0 0 0
75 1 6.285532998165533 15.72191824843216 22.00725723682598 0 0 -1
76 1 7.858141575821163 17.293963508317027 1.5694231592982877 0 0 0
77 1 9.43037691028889 15.721954791414703 22.007257220774157 0 0 -1
78 1 11.002767041211607 17.294065365476527 1.5693654429041186 0 0 0
79 1 12.575186236488602 15.722052232458362 22.007257334742576 0 0 -1
80 1 14.147468187947332 17.29414210488518 1.5693388456278103 0 0 0
81 1 15.720029810483673 15.72205468977505 22.00725757279408 0 0 -1
82 1 17.292111893458298 17.29404311339936 1.5693225131705424 0 0 0
83 1 18.86383806492572 15.72145086979228 22.007257787976908 0 0 -1
84 1 20.43583612602079 17.293549086037057 1.5695876397892499 0 0 0
85 1 22.00778867939021 18.865577184734263 22.007257976612554 -1 0 -1
86 1 1.5701923606916592 20.437616245708615 1.569686376589107 0 0 0
87 1 3.141949244725945 18.865693895189622 22.007257875718537 0 0 -1
88 1 4.7141064193583535 20.437686663339885 1.5696367059872098 0 0 0
89 1 6.286100780152823 18.865793312872718 22.00725780896758 0 0 -1
90 1 7.85832786466626 20.437709275063387 1.5696114872882636 0 0 0
91 1 9.430498067830118 18.865867431640094 22.00725795557722 0 0 -1
92 1 11.002746181679944 20.437758673432405 1.5695605296044952 0 0 0
93 1 12.575052643717562 18.86595352190507 22.00725791791003 0 0 -1
94 1 14.147306061110056 20.437794223859154 1.5695369491276465 0 0 0
95 1 15.71964707631765 18.865940553373786 22.007258018415175 0 0 -1
96 1 17.29184241786274 20.437770042594476 1.569541290107479 0 0 0
97 1 18.864027724797538 18.86581055760699 22.007257946906066 0 0 -1
98 1 20.435994156030617 20.437664073871577 1.5696254002004686 0 0 0
99 1 22.007869228644598 22.009543861138923 3.1417346043063192 -1 -1 0
100 1 1.5700936075005885 1.5718694584110937 4.7138436275896725 0 0 0
101 1 3.1420670720677495 22.009543871176636 3.1416967559817865 0 -1 0
102 1 4.713855894675703 1.5717314661245168 4.713628771705736 0 0 0
103 1 6.286161563472427 22.009543878605193 3.1416193439323736 0 -1 0
104 1 7.858204988890722 1.5717121651146861 4.713519419107605 0 0 0
105 1 9.430491071119437 22.00954388474425 3.1415221892768814 0 -1 0
106 1 11.00269740374944 1.5716506071281295 4.713385727237098 0 0 0
107 1 12.575008682237655 22.009543885631135 3.141450152627101 0 -1 0
108 1 14.147357365817246 1.5715769523021446 4.713344854380906 0 0 0
109 1 15.71960618824271 22.009543880707145 3.141451400766477 0 -1 0
110 1 17.292069707699504 1.5715655140040827 4.7133363045092995 0 0 0
111 1 18.864035944670846 22.00954387219511 3.1415167362294727 0 -1 0
112 1 20.435950614227643 1.5718303601975163 4.713732667206443 0 0 0
113 1 22.007754978962467 3.1438289024681225 3.14158937144021 -1 0 0
114 1 1.569656207391656 4.715695757895969 4.713461853326639 0 0 0
115 1 3.1418407111969495 3.14375248079476 3.1415598606396777 0 0 0
116 1 4.713204979685952 4.715247814524988 4.713048793485876 0 0 0
117 1 6.285975184572362 3.1436043341126743 3.1414379857990897 0 0 0
118 1 7.857951059346928 4.715118436711972 4.7129658538080825 0 0 0
119 1 9.430474579791756 3.143558036751641 3.1413623280240293 0 0 0
120 1 11.002748362738867 4.71512504202499 4.712896745672368 0 0 0
121 1 12.575039151701462 3.1434500796760747 3.1412988564901703 0 0 0
122 1 14.147680541978039 4.714750348134943 4.712715143816393 0 0 0
123 1 15.719759624774097 3.1433939396216637 3.1412331200028 0 0 0
124 1 17.292644115377577 4.71484912167843 4.712661315513912 0 0 0
125 1 18.86410941482018 3.143587326833713 3.141365249390007 0 0 0
126 1 20.435916544292727 4.7156558270911235 4.713415502798237 0 0 0
127 1 22.007476481070388 6.288169712281365 3.1415736939987604 -1 0 0
128 1 1.5694845956212895 7.860310900224633 4.713472091759093 0 0 0
129 1 3.1415137952788905 6.288022304837008 3.1413764646163336 0 0 0
130 1 4.7130947309588205 7.860079006341636 4.712904691918712 0 0 0
131 1 6.285098681488858 6.2871748064747806 3.140473712604689 0 0 0
132 1 7.856055092723488 7.857947836069355 4.7100264781995484 0 0 0
133 1 9.430413403464566 6.287308368787645 3.1407337615379327 0 0 0
134 1 11.002985718464805 7.85946109222986 4.711388341749213 0 0 0
135 1 12.575212946720145 6.287144652997961 3.140668815882146 0 0 0
136 1 14.149484405822179 7.857788962448028 4.710066126641954 0 0 0
137 1 15.720470808624134 6.286982875343 3.140311796198123 0 0 0
138 1 17.292077313415362 7.860088912463116 4.713161509770168 0 0 0
139 1 18.863926248182878 6.287974678983701 3.1413941800013765 0 0 0
140 1 20.435515533137657 7.860311834038179 4.713549587726642 0 0 0
141 1 22.00725972637472 9.43257717185379 3.141578714995837 -1 0 0
142 1 1.569385057240297 11.00477034009405 4.713467492840479 0 0 0
143 1 3.1414206721717814 9.432563823037823 3.1414056762813694 0 0 0
144 1 4.713182870758319 11.004770347017017 4.7130555621335715 0 0 0
145 1 6.285350280634422 9.432482985275557 3.1408981449669326 0 0 0
146 1 7.857762333350765 11.004770361746177 4.712031779411373 0 0 0
147 1 9.429319562982068 9.43133042351943 3.1384385267901656 0 0 0
148 1 11.003143465088767 11.004770371700742 4.701140008457601 0 0 0
149 1 12.576329816273011 9.431240487714259 3.1387028359856726 0 0 0
150 1 14.14742042915643 11.004770323671698 4.7126418505991206 0 0 0
151 1 15.719914721827298 9.43246689993497 3.141124135701957 0 0 0
152 1 17.29167380415978 11.004770329539786 4.713382945881936 0 0 0
153 1 18.863627203755946 9.432553702015705 3.141524747847054 0 0 0
154 1 20.43534870404337 11.004770336196875 4.713558442782296 0 0 0
155 1 22.007259726397972 12.576963506960906 3.141578690440005 -1 0 0
156 1 1.5694845795731265 14.149229795252108 4.71347204462833 0 0 0
157 1 3.1414206611527935 12.576976859034172 3.141405645621804 0 0 0
158 1 4.713094674417262 14.149461711558544 4.712904599029408 0 0 0
159 1 6.285350261845881 12.577057712446404 3.1408980856398165 0 0 0
160 1 7.856054991314589 14.151592995551157 4.710026197318519 0 0 0
161 1 9.429319556042303 12.578210307085 3.1384383941218146 0 0 0
162 1 11.002985714472043 14.150079783107035 4.711388010724308 0 0 0
163 1 12.576329834392933 12.578300244884167 3.1387026517175207 0 0 0
164 1 14.149484564346274 14.151751880782214 4.710065756711767 0 0 0
165 1 15.719914742890655 12.5770737754855 3.1411240638682747 0 0 0
166 1 17.292077388854267 14.149451794050321 4.713161393173508 0 0 0
167 1 18.86362721737572 12.576986970591737 3.141524711848612 0 0 0
168 1 20.435515554507923 14.149228856719251 4.7135495354734775 0 0 0
169 1 22.007476484173758 15.721370984716765 3.1415736351944816 -1 0 0
170 1 1.569656181330998 17.293844982092704 4.713461787425717 0 0 0
171 1 3.1415137686760026 15.721518406005828 3.1413763920321442 0 0 0
172 1 4.713204874986372 17.29429300145748 4.713048653611989 0 0 0
173 1 6.285098619270506 15.72236595552487 3.140473551373179 0 0 0
174 1 7.857950991379486 17.294422412217237 4.71296567070971 0 0 0
175 1 9.430413376558104 15.722232419639607 3.1407335578292215 0 0 0
176 1 11.002748364283002 17.294415820318694 4.71289653364592 0 0 0
177 1 12.575212978159879 15.722396135271607 3.1406685948291613 0 0 0
178 1 14.147680618192291 17.29479051052009 4.712714932399577 0 0 0
179 1 15.720470891967322 15.722557897761721 3.140311590506391 0 0 0
180 1 17.29264424562509 17.29469170917384 4.712661142805389 0 0 0
181 1 18.863926285974205 15.72156602949585 3.1413940916552088 0 0 0
182 1 20.435916584057278 17.29388491534665 4.713415428057059 0 0 0
183 1 22.007754982367334 18.865711823632047 3.141589318108376 -1 0 0
184 1 1.5700936006177975 20.437671278670273 4.713843604989779 0 0 0
185 1 3.141840683101502 18.86578826348204 3.141559793726629 0 0 0
186 1 4.713855868213831 20.437809319092565 4.713628729437402 0 0 0
187 1 6.285975154134006 18.865936430715614 3.1414378960535663 0 0 0
188 1 7.858204970696336 20.437828643443435 4.713519365934323 0 0 0
189 1 9.430474565897496 18.865982743005457 3.1413622179619214 0 0 0
190 1 11.002697405422543 20.43789021210513 4.713385662940555 0 0 0
191 1 12.575039166069942 18.866090700692673 3.1412987408691047 0 0 0
192 1 14.14735738537129 20.43796386009814 4.713344794224563 0 0 0
193 1 15.719759660388968 18.866146830580885 3.141233014979818 0 0 0
194 1 17.292069737727147 20.437975274267192 4.713336256383089 0 0 0
195 1 18.864109451761728 18.865953418400373 3.1413651716935944 0 0 0
196 1 20.435950626401898 20.437710378882244 4.713732640874021 0 0 0
197 1 22.00777416793787 22.009543864429357 6.286018236351672 -1 -1 0
198 1 1.570026621808266 1.5718917394852139 7.85818642064412 0 0 0
199 1 3.1419975975393495 22.009543873294827 6.286023581842987 0 -1 0
200 1 4.71390348211896 1.5718404362615488 7.858161283002567 0 0 0
201 1 6.285889559630302 22.00954390475049 6.2857114605643325 0 -1 0
202 1 7.857880557787356 1.5714237106580076 7.857715996646777 0 0 0
203 1 9.43037192737788 22.00954391723086 6.285580833609429 0 -1 0
204 1 11.002579667672352 1.5713979457500766 7.857667981817854 0 0 0
205 1 12.574969428820392 22.00954391478675 6.28548821938297 0 -1 0
206 1 14.14766264157085 1.5710579389191595 7.85750108961872 0 0 0
207 1 15.719856636152047 22.009543904068845 6.2854161795906025 0 -1 0
208 1 17.291978027294483 1.571589001970165 7.857868672229318 0 0 0
209 1 18.86397404432242 22.009543875354055 6.285796450680363 0 -1 0
210 1 20.43582810272234 1.5718442499710943 7.85807956755619 0 0 0
211 1 22.007675497577758 3.143798814771775 6.285908554219116 -1 0 0
212 1 1.5697284180298279 4.7157573345069626 7.858052669924913 0 0 0
213 1 3.1417771433694854 3.143689779677159 6.2858745687210344 0 0 0
214 1 4.713479738316037 4.715397324503343 7.857944415918135 0 0 0
215 1 6.28552541624694 3.1430672573671177 6.285336077425416 0 0 0
216 1 7.8570486368704024 4.713586068854244 7.856654044152948 0 0 0
217 1 9.430401795066274 3.1431875754342773 6.285275649371808 0 0 0
218 1 11.002561318991084 4.714399852766143 7.857316184009544 0 0 0
219 1 12.574989154879658 3.142937160199143 6.285216127442673 0 0 0
220 1 14.148939977350627 4.712275241957881 7.856224213746025 0 0 0
221 1 15.720300852602156 3.1425453890644244 6.284942369676945 0 0 0
222 1 17.292394958306495 4.7149242998717895 7.857609946313165 0 0 0
223 1 18.864077090023123 3.1435220955586605 6.285651160048091 0 0 0
224 1 20.435784255521348 4.715669322086213 7.8579722780616645 0 0 0
225 1 22.00726587662633 6.287752976423158 6.285495792866902 -1 0 0
226 1 1.5685870297309965 7.859641323512689 7.857334756260985 0 0 0
227 1 3.14056811575103 6.287207705007041 6.284934288783167 0 0 0
228 1 4.710299876597332 7.85781628354571 7.855434418484854 0 0 0
229 1 6.283673343677866 6.2856920314073905 6.283381016697092 0 0 0
230 1 7.851315787403737 7.852545348895652 7.849974938113872 0 0 0
231 1 9.430434690118854 6.286545600413293 6.284259703710677 0 0 0
232 1 11.003498898224603 7.858988186297816 7.855226832198866 0 0 0
233 1 12.575369776506136 6.285852997096852 6.284146050854167 0 0 0
234 1 14.156635214057223 7.849741750767708 7.848708341061157 0 0 0
235 1 15.72256358527851 6.284699764352848 6.282610444738242 0 0 0
236 1 17.29401441125405 7.85857781359827 7.85658255232631 0 0 0
237 1 18.86452634423789 6.287309902884549 6.28510964544416 0 0 0
238 1 20.435670206908206 7.859854238887154 7.857609889915999 0 0 0
239 1 22.00701635458529 9.432508981892349 6.285581707640891 -1 0 0
240 1 1.5687259568493472 11.004770340879647 7.857565279950884 0 0 0
241 1 3.1410270086613257 9.432535994103029 6.2852526454371525 0 0 0
242 1 4.712472192985697 11.004770331740295 7.857511230204298 0 0 0
243 1 6.28516908147101 9.43275401570916 6.284462630882934 0 0 0
244 1 7.860548480718501 11.004770310072471 7.859934553679314 0 0 0
245 1 9.425304602835705 9.427128473157413 6.277784907104631 0 0 0
246 1 11.002640844665331 11.004770386460095 7.790009702471802 0 0 0
247 1 12.580374984164932 9.426568413353115 6.279500580654279 0 0 0
248 1 14.143641852907507 11.004770129190554 7.860079760346983 0 0 0
249 1 15.719867068866407 9.432730626088489 6.285320101313162 0 0 0
250 1 17.29112136739188 11.0047703024353 7.8580691547810595 0 0 0
251 1 18.86354357006962 9.432598732010407 6.285568700641667 0 0 0
252 1 20.43510039659905 11.004770333593072 7.857751002267895 0 0 0
253 1 22.00701635691731 12.577031700007488 6.285581683911795 -1 0 0
254 1 1.5685869836930155 14.149899391716376 7.85733471516715 0 0 0
255 1 3.1410269810002966 12.577004695098017 6.285252613245942 0 0 0
256 1 4.710299632692371 14.151724545781459 7.855434264724637 0 0 0
257 1 6.285169033661031 12.576786700489423 6.284462557425022 0 0 0
258 1 7.851314914790354 14.156996285325048 7.849974015562995 0 0 0
259 1 9.425304526875946 12.582412436961055 6.277784510467937 0 0 0
260 1 11.003498845027423 14.150553148236424 7.855226051830154 0 0 0
261 1 12.580375144166098 12.582972490846817 6.2794999269769765 0 0 0
262 1 14.156636250923775 14.159799955855037 7.848707174343899 0 0 0
263 1 15.719867142501604 12.576810015558838 6.285319982041267 0 0 0
264 1 17.294014692748103 14.150963009345466 7.856582354606309 0 0 0
265 1 18.863543606476675 12.576941937507236 6.285568657882683 0 0 0
266 1 20.435670268528476 14.149686473799475 7.857609840393642 0 0 0
267 1 22.00726588476382 15.721787749157832 6.28549573753176 -1 0 0
268 1 1.5697284000049119 17.29378338662849 7.858052645645649 0 0 0
269 1 3.1405680164268235 15.722333064483724 6.284934195103002 0 0 0
270 1 4.713479670210376 17.29414345214611 7.857944372047788 0 0 0
271 1 6.283673031144984 15.72384899184914 6.283380668118286 0 0 0
272 1 7.857048480311196 17.295954972373533 7.856653817378941 0 0 0
273 1 9.430434587966587 15.722995415022833 6.284259337010787 0 0 0
274 1 11.002561319993672 17.295141153716227 7.8573158971838115 0 0 0
275 1 12.575369876543048 15.723688004668132 6.284145642105106 0 0 0
276 1 14.148940145981078 17.297265777473278 7.856223956577975 0 0 0
277 1 15.7225639518187 15.724841290010945 6.282610023278737 0 0 0
278 1 17.292395046652917 17.29461648440216 7.857609875163416 0 0 0
279 1 18.864526470371647 15.722230871121951 6.285109531506596 0 0 0
280 1 20.435784280262684 17.293871397593566 7.857972249305322 0 0 0
281 1 22.00767550220333 18.865741915468085 6.285908525683876 -1 0 0
282 1 1.570026615422911 20.437648981231995 7.858186410728888 0 0 0
283 1 3.141777111340572 18.865850972529945 6.285874529808708 0 0 0
284 1 4.713903467352023 20.437700315897217 7.858161268528634 0 0 0
285 1 6.285525336113347 18.86647360533753 6.285335968267841 0 0 0
286 1 7.8578805323932395 20.438117126471163 7.8577159496900935 0 0 0
287 1 9.430401766271292 18.866353313538156 6.285275507903766 0 0 0
288 1 11.0025796689331 20.438142900415677 7.857667917795491 0 0 0
289 1 12.574989190579336 18.86660372142808 6.2852159804108325 0 0 0
290 1 14.147662665615885 20.438482888575944 7.85750103768351 0 0 0
291 1 15.720300942260252 18.86699548238578 6.284942243225148 0 0 0
292 1 17.291978045167863 20.43795175093412 7.857868654224175 0 0 0
293 1 18.86407713279116 18.86601866144144 6.2856511110751 0 0 0
294 1 20.435828109807247 20.437696469027767 7.858079558406446 0 0 0
295 1 22.007675090152915 22.00954384676978 9.430318038147588 -1 -1 0
296 1 1.5699752213145624 1.5719054458314974 11.002484288361467 0 0 0
297 1 3.141937341435449 22.009543853158657 9.43035195860207 0 -1 0
298 1 4.713869643509081 1.5718850274932927 11.002484237396738 0 0 0
299 1 6.285951973641639 22.00954386755633 9.43031544610942 0 -1 0
300 1 7.858018954684828 1.5717580561626667 11.00248410460691 0 0 0
301 1 9.430137901008647 22.009543887917623 9.430042331522838 0 -1 0
302 1 11.002538704754722 1.5706953721083758 11.002484017230378 0 0 0
303 1 12.575103240976983 22.009543882678596 9.429986211298253 0 -1 0
304 1 14.147603857865585 1.5711608315341676 11.002484198080996 0 0 0
305 1 15.719827895014987 22.00954386077904 9.430128141835212 0 -1 0
306 1 17.29194725219221 1.571594691212126 11.002484269826272 0 0 0
307 1 18.86387882030523 22.00954384968687 9.430228696568507 0 -1 0
308 1 20.435757781684025 1.5718522780392914 11.002484532116815 0 0 0
309 1 22.00759405703004 3.1438126647744147 9.430296055861913 -1 0 0
310 1 1.5697139314835205 4.715793087832897 11.002484310321114 0 0 0
311 1 3.141814303124442 3.1438029992438494 9.430334789409425 0 0 0
312 1 4.713613941215928 4.7157349272968165 11.002484263978076 0 0 0
313 1 6.285853012211446 3.1436722168320745 9.430382950695671 0 0 0
314 1 7.858328223710001 4.715978127137007 11.002483816569347 0 0 0
315 1 9.429850067279116 3.142471803500455 9.429664324951153 0 0 0
316 1 11.002412345043963 4.709770384606632 11.002483717560015 0 0 0
317 1 12.575474809867657 3.1415501597244333 9.429613787766115 0 0 0
318 1 14.148062390354266 4.713402448836976 11.002484087887627 0 0 0
319 1 15.72008548822796 3.142777621163637 9.430082503829079 0 0 0
320 1 17.292196237496324 4.715056333221446 11.00248425856349 0 0 0
321 1 18.863939830213198 3.143556914279396 9.430222451451364 0 0 0
322 1 20.43572412368817 4.715666888897781 11.002484337692417 0 0 0
323 1 22.007266455873474 6.287821225596685 9.43020636690061 -1 0 0
324 1 1.568860661416119 7.85991710519181 11.002484346682131 0 0 0
325 1 3.141263621606124 6.287663411681253 9.430248064833918 0 0 0
326 1 4.71251486660587 7.86017079355215 11.002484171472219 0 0 0
327 1 6.285671883448795 6.287370403762396 9.430469083976742 0 0 0
328 1 7.859385651756639 7.8637571439615055 11.002484060724932 0 0 0
329 1 9.428128426174002 6.284820623548461 9.42723418966857 0 0 0
330 1 11.002885852229172 7.824240655646875 11.002485042356758 0 0 0
331 1 12.577890463424001 6.281013655618011 9.427305247263835 0 0 0
332 1 14.149921521487231 7.856402344204391 11.002484517844758 0 0 0
333 1 15.720882267596732 6.285871873001483 9.429837600452153 0 0 0
334 1 17.2924570441445 7.859587408130877 11.00248470294128 0 0 0
335 1 18.864062808118327 6.287446397734787 9.430195466221518 0 0 0
336 1 20.435413138505986 7.859962883925713 11.002484410795338 0 0 0
337 1 22.00646190630869 9.432199377010898 9.429888121922662 -1 0 0
338 1 1.5665743356469863 11.00477033784547 11.002484285223886 0 0 0
339 1 3.138411537240447 9.43123232886068 9.428840186150767 0 0 0
340 1 4.699652124426256 11.004770341508904 11.002484189515883 0 0 0
341 1 6.279035752570188 9.425721342644662 9.422852671496981 0 0 0
342 1 7.772432662429538 11.00477033880141 11.002482344638912 0 0 0
343 1 9.406261298380446 9.397296958171133 9.39446788472354 0 0 0
344 1 20.435994346839948 20.437663986833194 20.435343695085063 0 0 0
345 1 12.609571486935453 9.38448959320308 9.400912560232706 0 0 0
346 1 14.184271566624867 11.004770318622743 11.002486945281156 0 0 0
347 1 15.722413652818647 9.428949837271794 9.42731491810407 0 0 0
348 1 17.29601398399509 11.00477033192857 11.00248520758629 0 0 0
349 1 18.86429913313531 9.431956221953314 9.429680519780364 0 0 0
350 1 20.435471844378874 11.004770335905475 11.002484415262684 0 0 0
351 1 22.006461907116957 12.577341307540243 9.42988810891289 -1 0 0
352 1 1.5688606548962694 14.149623569752796 11.002484343471513 0 0 0
353 1 3.138411443146005 12.578308378660976 9.428840165480457 0 0 0
354 1 4.712514862006336 14.149369885155062 11.002484203021085 0 0 0
355 1 6.279035230749149 12.583819520487937 9.422852506807494 0 0 0
356 1 7.859385640912045 14.145783540815582 11.002484288973083 0 0 0
357 1 9.406258150038473 12.612246299303655 9.394465797345 0 0 0
358 1 11.002885810205347 14.185300005877885 11.002483959039013 0 0 0
359 1 12.609574926182315 12.62505329512321 9.40090936929422 0 0 0
360 1 14.149921420989006 14.153138223765113 11.002484487824663 0 0 0
361 1 15.722414265672295 12.580590949548824 9.427314667065975 0 0 0
362 1 17.29245701149438 14.149953243459619 11.0024846852296 0 0 0
363 1 18.86429924387578 12.577584471961217 9.429680477041506 0 0 0
364 1 20.435413126088523 14.149577784469457 11.002484401882967 0 0 0
365 1 22.00726645449952 15.721719467579309 9.430206353126245 -1 0 0
366 1 1.5697139244652398 17.293747586394915 11.002484302982436 0 0 0
367 1 3.141263591975607 15.721877297168412 9.43024805305737 0 0 0
368 1 4.713613934667776 17.293805751983054 11.002484245333152 0 0 0
369 1 6.285671830969831 15.722170347011795 9.430469060178854 0 0 0
370 1 7.858328214836647 17.293562555482275 11.002483770422607 0 0 0
371 1 9.428128217733983 15.724720705282259 9.42723378336581 0 0 0
372 1 11.002412334840352 17.299770285321483 11.002483541658892 0 0 0
373 1 12.577890651378688 15.728527603386745 9.427304768199827 0 0 0
374 1 14.148062371382052 17.29613819402788 11.002483993110179 0 0 0
375 1 15.720882386603867 15.723668915876617 9.429837523743283 0 0 0
376 1 17.292196221216017 17.294484323001274 11.002484241515315 0 0 0
377 1 18.864062847573408 15.722094305305944 9.430195441885965 0 0 0
378 1 20.435724113140054 17.29387377715118 11.002484329163668 0 0 0
379 1 22.00759405396129 18.86572803187967 9.430296046344038 -1 0 0
380 1 1.569975218330285 20.437635228121607 11.002484284924149 0 0 0
381 1 3.141814287336193 18.865737710253832 9.43033477951613 0 0 0
382 1 4.713869640704462 20.43765565116969 11.002484231662685 0 0 0
383 1 6.285852985254279 18.865868528559332 9.43038292614582 0 0 0
384 1 7.858018951773589 20.43778262399338 11.002484088096544 0 0 0
385 1 9.429850048065424 18.867069051379364 9.429664226813673 0 0 0
386 1 11.002538702800258 20.43884529957266 11.002483987293967 0 0 0
387 1 12.575474824851097 18.867990675762265 9.429613682378791 0 0 0
388 1 14.147603853793198 20.438379827852955 11.00248417375616 0 0 0
389 1 15.720085508094591 18.866763114458237 9.430082463394326 0 0 0
390 1 17.291947247239722 20.437945969052468 11.002484259623813 0 0 0
391 1 18.863939839420258 18.865983786229577 9.430222440379232 0 0 0
392 1 20.435757778223913 20.43768838930306 11.002484526722514 0 0 0
393 1 22.007675395630468 22.00954382385648 12.574650780235213 -1 -1 0
394 1 1.57002687878188 1.5718915892006944 14.146782413947093 0 0 0
395 1 3.1419374444334554 22.009543823271198 12.574616625932224 0 -1 0
396 1 4.713903470727914 1.5718402458095222 14.14680737423906 0 0 0
397 1 6.285951985647893 22.009543812394124 12.574652954491985 0 -1 0
398 1 7.857880517564266 1.5714229808295905 14.147252632026792 0 0 0
399 1 9.430137969495895 22.009543789581723 12.574925970028117 0 -1 0
400 1 11.002579919816261 1.5713968182981177 14.147301045216556 0 0 0
401 1 12.57510356377631 22.009543784061155 12.574982247860758 0 -1 0
402 1 14.147663269528577 1.5710571944651242 14.147467775712451 0 0 0
403 1 15.719828155293799 22.009543799662357 12.574840290900362 0 -1 0
404 1 17.291978577196698 1.5715887457576647 14.147100175798581 0 0 0
405 1 18.863878999235318 22.00954381465057 12.574740146676383 0 -1 0
406 1 20.435828436133548 1.5718443408311888 14.146889166444652 0 0 0
407 1 22.00759416403003 3.143812665075906 12.574672715419773 -1 0 0
408 1 1.5697286053977315 4.715757062777433 14.14691596043551 0 0 0
409 1 3.141814217226093 3.143802690629131 12.574633821372549 0 0 0
410 1 4.713479687850483 4.7153969554500526 14.14702393218141 0 0 0
411 1 6.285853076746423 3.1436718046585455 12.574585353760417 0 0 0
412 1 7.857048048706339 4.7135836333296295 14.148315214862263 0 0 0
413 1 9.429850167853989 3.142470248007351 12.575304023590775 0 0 0
414 1 11.002561622132173 4.714395702046365 14.147654112948926 0 0 0
415 1 12.575475111378772 3.141548462738425 12.575354819779674 0 0 0
416 1 14.148941354297047 4.71227246305369 14.148745730057337 0 0 0
417 1 15.720085781199662 3.1427771104718416 12.574886049758927 0 0 0
418 1 17.292395890100742 4.7149234838166505 14.147359123679985 0 0 0
419 1 18.863940010828568 3.1435568807453693 12.574746321397761 0 0 0
420 1 20.43578467300385 4.715669290843093 14.146996685439154 0 0 0
421 1 22.00726671769027 6.287821159515547 12.574762279281877 -1 0 0
422 1 1.5685874208183037 7.859641216991355 14.147633648936257 0 0 0
423 1 3.141263752294461 6.287663290335943 12.57472042978964 0 0 0
424 1 4.710299903621687 7.857816096944348 14.14953378541238 0 0 0
425 1 6.285672276003654 6.2873697632917676 12.574499065329624 0 0 0
426 1 7.851313087183879 7.8525399068745285 14.154997519412632 0 0 0
427 1 9.428128473080992 6.284813869835539 12.577735274273788 0 0 0
428 1 11.003499553001912 7.858977247573987 14.149748081024676 0 0 0
429 1 12.577891114125418 6.2810063390518875 12.57766484078012 0 0 0
430 1 14.156640295132485 7.8497348532324915 14.156266431708808 0 0 0
431 1 15.720883024761083 6.285870500507687 12.575131418961707 0 0 0
432 1 17.294015791568718 7.858576889252473 14.148386905337219 0 0 0
433 1 18.864063252123753 6.287446168366986 12.574773403771648 0 0 0
434 1 20.435670834915317 7.859854208685019 14.147358971092498 0 0 0
435 1 22.006462268313687 9.432199326957642 12.575080529712112 -1 0 0
436 1 1.5687265751301567 11.004770334347246 14.14740311142935 0 0 0
437 1 3.1384119381356976 9.431232313990833 12.576128130060109 0 0 0
438 1 4.712473632425201 11.004770346399813 14.147456018462286 0 0 0
439 1 6.279037435698134 9.425720206492176 12.582115129064263 0 0 0
440 1 7.860550813352145 11.00477035764319 14.145030087853051 0 0 0
441 1 9.406265732466114 9.397271753423091 12.61051401838714 0 0 0