LAMMPS data file via write_data, version 2 Aug 2023, timestep = 10, units = metal

686 atoms
3 atom types

0 22.009546999999998 xlo xhi
0 22.009546999999998 ylo yhi
0 22.009546999999998 zlo zhi

Masses

1 183.84
2 1.008
3 4.0026

Atoms # atomic

1 1 22.009546529055548 22.009546529055545 22.009546378188144 -1 -1 -1
2 1 1.572262533389655 1.572262533389653 1.5722624048491658 0 0 0
3 1 3.144389885329939 22.009546426666002 22.00954624431432 0 -1 -1
4 1 4.7165720758852485 1.572269710487737 1.5722695632057815 0 0 0
5 1 6.288639727804649 22.0095464955125 22.00954633105655 0 -1 -1
6 1 7.860733940885995 1.5722910158266743 1.5722908697935085 0 0 0
7 1 9.432745974290901 22.00954658085016 22.009546444571082 0 -1 -1
8 1 11.004774041566645 1.572302484107061 1.5723023572895691 0 0 0
9 1 12.576801676014743 22.009546583727666 22.009546447952157 0 -1 -1
10 1 14.148813701305814 1.5722913055961625 1.572291163404869 0 0 0
11 1 15.720907639909436 22.009546520053252 22.009546361341034 0 -1 -1
12 1 17.292974607374582 1.5722701726493593 1.572270028736477 0 0 0
13 1 18.865156442231157 22.00954644825119 22.009546270623787 0 -1 -1
14 1 20.43728334955133 1.5722628297016297 1.5722627042547728 0 0 0
15 1 22.009546426666002 3.14438988532994 22.009546244314315 -1 0 -1
16 1 1.5722697104877355 4.716572075885249 1.5722695632057806 0 0 0
17 1 3.1444635089806345 3.144463508980634 22.009545777595953 0 0 -1
18 1 4.716667110263799 4.716667110263798 1.5724391787140846 0 0 0
19 1 6.288695564145538 3.144488793198114 22.009545419441473 0 0 -1
20 1 7.8608342785283885 4.716747235077333 1.5724824129588788 0 0 0
21 1 9.432767383557266 3.144517675451046 22.009545126253805 0 0 -1
22 1 11.004774266252666 4.716773357611216 1.5724748942155866 0 0 0
23 1 12.57678076073091 3.1445178561270373 22.009545139679563 0 0 -1
24 1 14.148713369619626 4.716748200833766 1.5724834402102554 0 0 0
25 1 15.72085162496926 3.1444894899285716 22.009545451249604 0 0 -1
26 1 17.292878907212927 4.716668465350914 1.5724402802333062 0 0 0
27 1 18.865082529045576 3.1444641941485423 22.009545809174075 0 0 -1
28 1 20.437275855644796 4.716572526281617 1.5722700833484864 0 0 0
29 1 22.009546495512502 6.288639727804648 22.00954633105655 -1 0 -1
30 1 1.5722910158266747 7.860733940885995 1.572290869793509 0 0 0
31 1 3.144488793198114 6.288695564145537 22.009545419441473 0 0 -1
32 1 4.7167472350773325 7.860834278528388 1.5724824129588795 0 0 0
33 1 6.288608329013577 6.288608329013577 22.00954402703239 0 0 -1
34 1 7.860569761820665 7.860569761820664 1.5724583539734178 0 0 0
35 1 9.432784579388134 6.288754325009121 22.009542887223017 0 0 -1
36 1 11.004774093274845 7.860822978563858 1.5726412772420493 0 0 0
37 1 12.576763854107977 6.288754824264751 22.009542916486893 0 0 -1
38 1 14.14897711698566 7.860570791522629 1.5724602148785847 0 0 0
39 1 15.720938640599252 6.2886093409172785 22.009544108186894 0 0 -1
40 1 17.292798565770294 7.8608352456326225 1.5724837365160929 0 0 0
41 1 18.865056931878307 6.288696288521058 22.00954547514944 0 0 -1
42 1 20.43725445855117 7.860734291071076 1.5722914976333653 0 0 0
43 1 22.00954658085016 9.432745974290903 22.009546444571082 -1 0 -1
44 1 1.57230248410706 11.004774041566643 1.5723023572895691 0 0 0
45 1 3.1445176754510458 9.432767383557266 22.0095451262538 0 0 -1
46 1 4.716773357611215 11.004774266252667 1.5724748942155866 0 0 0
47 1 6.288754325009121 9.432784579388134 22.009542887223017 0 0 -1
48 1 7.86082297856386 11.004774093274845 1.5726412772420493 0 0 0
49 1 9.432562267192372 9.432562267192372 22.009540447905245 0 0 -1
50 1 11.00477384423043 11.00477384423043 1.5717040602238144 0 0 0
51 1 12.57698596563027 9.432562413665309 22.009540519525814 0 0 -1
52 1 14.14872359651714 11.004774101769781 1.5726433052042108 0 0 0
53 1 15.720792589003548 9.432785069737438 22.009543002674118 0 0 -1
54 1 17.29277225035904 11.00477426266269 1.5724762798480514 0 0 0
55 1 18.86502803586758 9.432767616587272 22.00954518836494 0 0 -1
56 1 20.43724305579166 11.004774037868023 1.572303037040572 0 0 0
57 1 22.009546583727666 12.576801676014743 22.009546447952157 -1 0 -1
58 1 1.572291305596162 14.148813701305814 1.5722911634048695 0 0 0
59 1 3.144517856127039 12.576780760730912 22.009545139679567 0 0 -1
60 1 4.716748200833766 14.148713369619625 1.5724834402102552 0 0 0
61 1 6.288754824264751 12.576763854107977 22.00954291648689 0 0 -1
62 1 7.86057079152263 14.14897711698566 1.572460214878584 0 0 0
63 1 9.43256241366531 12.576985965630268 22.009540519525814 0 0 -1
64 1 11.00477410176978 14.14872359651714 1.5726433052042108 0 0 0
65 1 12.576985820754397 12.576985820754397 22.009540593647674 0 0 -1
66 1 14.148976095436032 14.14897609543603 1.5724620730008276 0 0 0
67 1 15.720792097876519 12.576763343210153 22.00954303024494 0 0 -1
68 1 17.292797631654068 14.148712400279718 1.5724847400505972 0 0 0
69 1 18.865027868141652 12.576780504201096 22.009545195951404 0 0 -1
70 1 20.437254204030623 14.14881334338509 1.5722917871446218 0 0 0
71 1 22.009546520053256 15.720907639909434 22.009546361341034 -1 0 -1
72 1 1.5722701726493618 17.29297460737458 1.5722700287364773 0 0 0
73 1 3.1444894899285707 15.720851624969262 22.009545451249604 0 0 -1
74 1 4.716668465350914 17.292878907212927 1.5724402802333066 0 0 0
75 1 6.288609340917279 15.720938640599252 22.009544108186894 0 0 -1
76 1 7.860835245632623 17.292798565770294 1.5724837365160915 0 0 0
77 1 9.432785069737438 15.720792589003548 22.009543002674118 0 0 -1
78 1 11.00477426266269 17.29277225035904 1.572476279848052 0 0 0
79 1 12.576763343210155 15.720792097876519 22.00954303024494 0 0 -1
80 1 14.148712400279718 17.292797631654068 1.572484740050598 0 0 0
81 1 15.720937661293778 15.720937661293776 22.009544195761528 0 0 -1
82 1 17.292877591188812 17.29287759118881 1.5724413299400624 0 0 0
83 1 18.8650562466714 15.720850901878347 22.00954550200031 0 0 -1
84 1 20.43727543438036 17.292974172268302 1.5722705349708899 0 0 0
85 1 22.00954644825119 18.865156442231157 22.009546270623787 -1 0 -1
86 1 1.5722628297016281 20.43728334955133 1.572262704254772 0 0 0
87 1 3.1444641941485423 18.865082529045576 22.009545809174075 0 0 -1
88 1 4.716572526281617 20.437275855644792 1.572270083348486 0 0 0
89 1 6.288696288521058 18.865056931878307 22.009545475149437 0 0 -1
90 1 7.8607342910710765 20.43725445855117 1.5722914976333642 0 0 0
91 1 9.432767616587272 18.86502803586758 22.00954518836494 0 0 -1
92 1 11.004774037868023 20.43724305579166 1.572303037040572 0 0 0
93 1 12.576780504201096 18.865027868141652 22.009545195951404 0 0 -1
94 1 14.14881334338509 20.437254204030623 1.5722917871446214 0 0 0
95 1 15.720850901878347 18.8650562466714 22.00954550200031 0 0 -1
96 1 17.292974172268302 20.43727543438036 1.5722705349708888 0 0 0
97 1 18.865081871572404 18.865081871572404 22.009545838253622 0 0 -1
98 1 20.43728307432273 20.43728307432273 1.5722630134121736 0 0 0
99 1 22.009546423244405 22.009546423244405 3.144389778679833 -1 -1 0
100 1 1.572269715319191 1.5722697153191905 4.716572094520932 0 0 0
101 1 3.144463398719011 22.009546066980075 3.1444633544803553 0 -1 0
102 1 4.7166670336869165 1.572439463343901 4.716667089846307 0 0 0
103 1 6.288695447811678 22.009545794154306 3.144488587403855 0 -1 0
104 1 7.8608342593899385 1.57248286639393 4.716747212826287 0 0 0
105 1 9.43276734352819 22.00954557181517 3.144517465300737 0 -1 0
106 1 11.00477426929229 1.5724754207711673 4.716773308864875 0 0 0
107 1 12.576780803686127 22.00954558304908 3.1445176483875814 0 -1 0
108 1 14.14871339160303 1.5724838892099422 4.716748181800592 0 0 0
109 1 15.72085174233128 22.009545820270123 3.1444892862256073 0 -1 0
110 1 17.29287898287177 1.5724405588398984 4.7166684500351 0 0 0
111 1 18.865082634665733 22.009546093023317 3.144464044274719 0 -1 0
112 1 20.437275844949948 1.5722702351328357 4.716572548535419 0 0 0
113 1 22.009546066980075 3.144463398719013 3.1444633544803553 -1 0 0
114 1 1.5724394633439016 4.716667033686917 4.7166670898463074 0 0 0
115 1 3.144642387004642 3.144642387004641 3.1446423406289528 0 0 0
116 1 4.717390857346209 4.717390857346209 4.71739085758692 0 0 0
117 1 6.288802990224006 3.1446579056522377 3.144657812380516 0 0 0
118 1 7.8611980386782925 4.717345278664105 4.717345117079121 0 0 0
119 1 9.432834777699414 3.1447078771867933 3.1447077507407175 0 0 0
120 1 11.004773316296896 4.717383858544965 4.717383524884283 0 0 0
121 1 12.576713442891407 3.1447084649711345 3.144708340827367 0 0 0
122 1 14.148347845937883 4.71734803048093 4.717347870028284 0 0 0
123 1 15.720743618331882 3.144659354807445 3.1446592648011356 0 0 0
124 1 17.292152932937178 4.7173940698531025 4.717394077020874 0 0 0
125 1 18.864903158075148 3.144643551831473 3.1446435111397313 0 0 0
126 1 20.437104662823682 4.71666791015404 4.716667970489759 0 0 0
127 1 22.009545794154306 6.288695447811677 3.144488587403855 -1 0 0
128 1 1.572482866393931 7.8608342593899385 4.716747212826287 0 0 0
129 1 3.144657905652238 6.288802990224007 3.144657812380516 0 0 0
130 1 4.717345278664105 7.8611980386782925 4.7173451170791205 0 0 0
131 1 6.288937833022913 6.288937833022913 3.1450835686044276 0 0 0
132 1 7.861014114750628 7.8610141147506285 4.717975114072335 0 0 0
133 1 9.43303360247426 6.289177806978569 3.1453367801318968 0 0 0
134 1 11.00477074057426 7.862311015775074 4.719033525354242 0 0 0
135 1 12.576513333910084 6.2891790099166265 3.1453382612008687 0 0 0
136 1 14.148526632474505 7.861017646930283 4.717980873641947 0 0 0
137 1 15.720607172292455 6.288940256058264 3.1450869741523935 0 0 0
138 1 17.29219630486909 7.861200710178625 4.717349537542579 0 0 0
139 1 18.864886865323367 6.288804448561822 3.1446594639301715 0 0 0
140 1 20.43705997290212 7.860835122346176 4.71674830866228 0 0 0
141 1 22.00954557181517 9.43276734352819 3.1445174653007366 -1 0 0
142 1 1.5724754207711678 11.00477426929229 4.716773308864875 0 0 0
143 1 3.144707877186793 9.432834777699412 3.1447077507407175 0 0 0
144 1 4.717383858544966 11.004773316296896 4.7173835248842835 0 0 0
145 1 6.289177806978569 9.43303360247426 3.145336780131898 0 0 0
146 1 7.862311015775074 11.00477074057426 4.719033525354242 0 0 0
147 1 9.432315835791647 9.432315835791647 3.1446604135431406 0 0 0
148 1 11.004768875364608 11.004768875364608 4.711892972131159 0 0 0
149 1 12.577228800970078 9.432316356109594 3.144662717551359 0 0 0
150 1 14.147227262646865 11.004770762029084 4.7190396128250685 0 0 0
151 1 15.720365874695169 9.43303486517245 3.1453407675131833 0 0 0
152 1 17.29215615159653 11.00477334631833 4.717388376908568 0 0 0
153 1 18.864836510465487 9.43283541187928 3.1447095786937216 0 0 0
154 1 20.4370669576156 11.004774274714745 4.716774400724912 0 0 0
155 1 22.00954558304908 12.576780803686127 3.1445176483875814 -1 0 0
156 1 1.572483889209943 14.148713391603028 4.716748181800592 0 0 0
157 1 3.1447084649711345 12.576713442891407 3.144708340827367 0 0 0
158 1 4.71734803048093 14.148347845937883 4.717347870028284 0 0 0
159 1 6.2891790099166265 12.576513333910084 3.1453382612008682 0 0 0
160 1 7.861017646930284 14.148526632474507 4.717980873641947 0 0 0
161 1 9.432316356109594 12.577228800970078 3.144662717551359 0 0 0
162 1 11.004770762029084 14.147227262646865 4.7190396128250685 0 0 0
163 1 12.577228296099548 12.577228296099548 3.1446649986772437 0 0 0
164 1 14.14852319709557 14.14852319709557 4.7179865585951895 0 0 0
165 1 15.720364688724043 12.57651211216983 3.145342225375634 0 0 0
166 1 17.292193605572102 14.148345249510697 4.717352243732165 0 0 0
167 1 18.86483596981201 12.576712819875777 3.1447101297042392 0 0 0
168 1 20.437059027777348 14.148712549076293 4.7167492427302875 0 0 0
169 1 22.009545820270123 15.720851742331279 3.1444892862256073 -1 0 0
170 1 1.5724405588398993 17.292878982871773 4.716668450035101 0 0 0
171 1 3.144659354807446 15.72074361833188 3.1446592648011356 0 0 0
172 1 4.717394069853103 17.292152932937178 4.717394077020874 0 0 0
173 1 6.288940256058264 15.720607172292455 3.145086974152394 0 0 0
174 1 7.8612007101786245 17.29219630486909 4.717349537542578 0 0 0
175 1 9.43303486517245 15.720365874695169 3.145340767513183 0 0 0
176 1 11.004773346318332 17.29215615159653 4.717388376908567 0 0 0
177 1 12.57651211216983 15.720364688724041 3.145342225375634 0 0 0
178 1 14.148345249510697 17.292193605572102 4.717352243732165 0 0 0
179 1 15.720604794485311 15.720604794485311 3.1450903477733188 0 0 0
180 1 17.292149816805935 17.292149816805935 4.717397216683878 0 0 0
181 1 18.864885471314008 15.720742174847265 3.144660879778769 0 0 0
182 1 20.43710367057912 17.292878140478624 4.7166692933815995 0 0 0
183 1 22.009546093023314 18.865082634665733 3.144464044274719 -1 0 0
184 1 1.5722702351328357 20.437275844949948 4.716572548535418 0 0 0
185 1 3.1446435518314737 18.864903158075148 3.144643511139731 0 0 0
186 1 4.71666791015404 20.437104662823682 4.716667970489759 0 0 0
187 1 6.288804448561822 18.864886865323367 3.1446594639301715 0 0 0
188 1 7.860835122346175 20.43705997290212 4.716748308662281 0 0 0
189 1 9.43283541187928 18.864836510465487 3.144709578693721 0 0 0
190 1 11.004774274714745 20.4370669576156 4.716774400724913 0 0 0
191 1 12.576712819875777 18.86483596981201 3.144710129704238 0 0 0
192 1 14.148712549076293 20.437059027777348 4.716749242730288 0 0 0
193 1 15.720742174847265 18.864885471314008 3.1446608797787694 0 0 0
194 1 17.292878140478624 20.437103670579116 4.7166692933816 0 0 0
195 1 18.864902059148505 18.864902059148505 3.144644643374494 0 0 0
196 1 20.437275364479348 20.437275364479348 4.716572981172266 0 0 0
197 1 22.00954649060792 22.00954649060792 6.288639784893613 -1 -1 0
198 1 1.5722910624764852 1.5722910624764843 7.860734094586267 0 0 0
199 1 3.1444886791298643 22.00954579100478 6.288695592557934 0 -1 0
200 1 4.716747250333095 1.5724829003686815 7.860834510066153 0 0 0
201 1 6.288608168818253 22.00954473097353 6.288608325592773 0 -1 0
202 1 7.860569821890117 1.5724593219908765 7.860569966640437 0 0 0
203 1 9.432784498780649 22.009543866742366 6.288754315735921 0 -1 0
204 1 11.004774098490904 1.5726424549065818 7.860823162248947 0 0 0
205 1 12.57676394068174 22.009543893299305 6.288754816977877 0 -1 0
206 1 14.148977061418284 1.5724611741329924 7.86057099846061 0 0 0
207 1 15.720938795567607 22.00954479831655 6.288609346231934 0 -1 0
208 1 17.29279855015449 1.572484220415807 7.860835481107847 0 0 0
209 1 18.86505704188827 22.00954584317154 6.288696320291879 0 -1 0
210 1 20.43725440623321 1.5722916887417089 7.860734446429787 0 0 0
211 1 22.00954579100478 3.144488679129864 6.288695592557934 -1 0 0
212 1 1.5724829003686822 4.716747250333095 7.8608345100661525 0 0 0
213 1 3.144657932490335 3.144657932490335 6.2888031492223435 0 0 0
214 1 4.717345517725465 4.717345517725464 7.861198262578078 0 0 0
215 1 6.288937903087758 3.1450839806718505 6.288937967832053 0 0 0
216 1 7.861014264223095 4.717976164952551 7.861013832022361 0 0 0
217 1 9.433033598716666 3.145337464092118 6.289177803438513 0 0 0
218 1 11.004770747832316 4.719035088230077 7.862310430741018 0 0 0
219 1 12.576513340825265 3.1453389451401996 6.289179011906437 0 0 0
220 1 14.148526472462578 4.717981923964145 7.861017371450143 0 0 0
221 1 15.720607105237757 3.145087377579031 6.288940395438552 0 0 0
222 1 17.29219605903103 4.717349940865902 7.861200953052101 0 0 0
223 1 18.864886834499032 3.1446595831128312 6.288804615121629 0 0 0
224 1 20.437059934698695 4.716748342338309 7.860835376211497 0 0 0
225 1 22.00954473097353 6.288608168818253 6.288608325592773 -1 0 0
226 1 1.572459321990877 7.860569821890118 7.860569966640437 0 0 0
227 1 3.145083980671851 6.288937903087758 6.288937967832053 0 0 0
228 1 4.717976164952552 7.861014264223094 7.861013832022361 0 0 0
229 1 6.291125902947127 6.291125902947126 6.291125583407437 0 0 0
230 1 7.867517031419863 7.867517031419863 7.867514918906794 0 0 0
231 1 9.434074475366149 6.290952435219911 6.290951439293755 0 0 0
232 1 11.004763158137758 7.869968253408815 7.869964919098986 0 0 0
233 1 12.575465640512494 6.290955510165843 6.290954520484143 0 0 0
234 1 14.142006208363934 7.8675271721223625 7.867525048123425 0 0 0
235 1 15.718412892942633 6.291132085034244 6.291131765089489 0 0 0
236 1 17.291558426256866 7.861018870674645 7.861018440761346 0 0 0
237 1 18.8644569734972 6.288940853980927 6.288940925399494 0 0 0
238 1 20.437079525004663 7.860571279523427 7.860571427533035 0 0 0
239 1 22.00954386674237 9.432784498780649 6.288754315735922 -1 0 0
240 1 1.5726424549065832 11.004774098490902 7.860823162248946 0 0 0
241 1 3.1453374640921186 9.433033598716666 6.289177803438513 0 0 0
242 1 4.719035088230078 11.004770747832318 7.862310430741017 0 0 0
243 1 6.290952435219911 9.434074475366149 6.290951439293754 0 0 0
244 1 7.869968253408816 11.004763158137758 7.869964919098987 0 0 0
245 1 9.431307475743626 9.431307475743626 6.291954972620746 0 0 0
246 1 11.004755624687848 11.004755624687848 7.822459099076717 0 0 0
247 1 12.578221030553586 9.431309765189289 6.291961692832203 0 0 0
248 1 14.13954929714606 11.004763279825294 7.869973081439387 0 0 0
249 1 15.718581168962533 9.434077420900017 6.2909584820817654 0 0 0
250 1 17.29049592816027 11.00477083638375 7.862315612967864 0 0 0
251 1 18.864201251406833 9.433034801850228 6.289181217551977 0 0 0
252 1 20.436895030159064 11.004774125442141 7.860824793889265 0 0 0
253 1 22.009543893299305 12.57676394068174 6.288754816977878 -1 0 0
254 1 1.5724611741329901 14.148977061418284 7.86057099846061 0 0 0
255 1 3.1453389451401996 12.576513340825265 6.289179011906437 0 0 0
256 1 4.717981923964145 14.148526472462578 7.861017371450143 0 0 0
257 1 6.290955510165842 12.575465640512494 6.290954520484144 0 0 0
258 1 7.8675271721223625 14.142006208363934 7.867525048123425 0 0 0
259 1 9.43130976518929 12.578221030553586 6.291961692832204 0 0 0
260 1 11.004763279825294 14.13954929714606 7.869973081439386 0 0 0
261 1 12.578218825597816 12.578218825597816 6.2919684320075575 0 0 0
262 1 14.141996451859546 14.141996451859544 7.867535014450502 0 0 0
263 1 15.718578165363459 12.575462812706597 6.290961593190475 0 0 0
264 1 17.291552950851028 14.148522019794706 7.861021885985348 0 0 0
265 1 18.864199819555342 12.57651219427418 6.289182443099215 0 0 0
266 1 20.437077842358885 14.148975657288771 7.860572424260539 0 0 0
267 1 22.00954479831655 15.720938795567607 6.288609346231935 -1 0 0
268 1 1.5724842204158076 17.29279855015449 7.860835481107847 0 0 0
269 1 3.1450873775790313 15.720607105237757 6.288940395438552 0 0 0
270 1 4.717349940865902 17.29219605903103 7.861200953052101 0 0 0
271 1 6.291132085034244 15.718412892942633 6.291131765089489 0 0 0
272 1 7.861018870674644 17.291558426256866 7.861018440761347 0 0 0
273 1 9.434077420900017 15.718581168962531 6.290958482081765 0 0 0
274 1 11.00477083638375 17.29049592816027 7.862315612967864 0 0 0
275 1 12.575462812706595 15.718578165363459 6.290961593190474 0 0 0
276 1 14.148522019794706 17.291552950851028 7.861021885985348 0 0 0
277 1 15.718406926508466 15.718406926508466 6.291137731388682 0 0 0
278 1 17.2921918955158 17.2921918955158 7.861203513189079 0 0 0
279 1 18.864453739368088 15.720604265182562 6.288943258521838 0 0 0
280 1 20.437058776460237 17.292797533976735 7.860836303574983 0 0 0
281 1 22.00954584317154 18.86505704188827 6.288696320291878 -1 0 0
282 1 1.5722916887417095 20.437254406233208 7.860734446429787 0 0 0
283 1 3.1446595831128303 18.864886834499032 6.28880461512163 0 0 0
284 1 4.71674834233831 20.437059934698695 7.860835376211498 0 0 0
285 1 6.288940853980927 18.8644569734972 6.288940925399493 0 0 0
286 1 7.860571279523428 20.437079525004663 7.860571427533034 0 0 0
287 1 9.433034801850228 18.864201251406833 6.289181217551977 0 0 0
288 1 11.004774125442141 20.436895030159064 7.860824793889264 0 0 0
289 1 12.57651219427418 18.86419981955534 6.289182443099217 0 0 0
290 1 14.148975657288771 20.43707784235888 7.86057242426054 0 0 0
291 1 15.72060426518256 18.864453739368088 6.288943258521838 0 0 0
292 1 17.292797533976735 20.437058776460237 7.860836303574982 0 0 0
293 1 18.864885275800056 18.864885275800056 6.288806033845885 0 0 0
294 1 20.43725383262972 20.43725383262972 7.860734787463636 0 0 0
295 1 22.00954657955352 22.00954657955352 9.432746077561848 -1 -1 0
296 1 1.5723025855843897 1.5723025855843888 11.004774211421417 0 0 0
297 1 3.144517641922622 22.00954557025856 9.432767560826495 0 -1 0
298 1 4.71677352475189 1.5724756221487173 11.004774509399857 0 0 0
299 1 6.2887542490630945 22.009543867873496 9.432784797201984 0 -1 0
300 1 7.860823225551857 1.5726427627572956 11.004774283257426 0 0 0
301 1 9.43256223483558 22.009542004378478 9.432562448282804 0 -1 0
302 1 11.004773848778171 1.571705957537709 11.004773951075562 0 0 0
303 1 12.576986002532774 22.009542070465336 9.432562597646607 0 -1 0
304 1 14.14872335696991 1.5726447803442356 11.004774294732654 0 0 0
305 1 15.720792660656954 22.00954396629951 9.432785289856994 0 -1 0
306 1 17.292772087268908 1.572477001917729 11.004774505521691 0 0 0
307 1 18.865028064970282 22.009545628308075 9.432767794472888 0 -1 0
308 1 20.437242955731513 1.5723032615728891 11.004774206851383 0 0 0
309 1 22.00954557025856 3.144517641922622 9.432767560826495 -1 0 0
310 1 1.5724756221487175 4.71677352475189 11.004774509399857 0 0 0
311 1 3.1447080648800885 3.1447080648800876 9.432835067260886 0 0 0
312 1 4.7173845889973425 4.7173845889973425 11.004773259563873 0 0 0
313 1 6.289178126844388 3.145337825199194 9.433033779283852 0 0 0
314 1 7.8623117895864425 4.719035983000985 11.004769876693882 0 0 0
315 1 9.432316022715906 3.1446621475566503 9.432315735021634 0 0 0
316 1 11.004768874215069 4.711896437375686 11.004767422521434 0 0 0
317 1 12.577228620508068 3.1446644554424963 9.432316253503263 0 0 0
318 1 14.147226484081521 4.719042094554328 11.004769902263883 0 0 0
319 1 15.72036555307834 3.145341820950991 9.433035050249002 0 0 0
320 1 17.292155401819166 4.717389457690409 11.00477329529704 0 0 0
321 1 18.864836318971008 3.1447098907856867 9.432835705714144 0 0 0
322 1 20.437066755700226 4.71677461175184 11.00477451826587 0 0 0
323 1 22.009543867873496 6.2887542490630945 9.432784797201984 -1 0 0
324 1 1.5726427627572959 7.860823225551857 11.004774283257428 0 0 0
325 1 3.145337825199195 6.289178126844387 9.433033779283852 0 0 0
326 1 4.719035983000985 7.862311789586442 11.004769876693882 0 0 0
327 1 6.290953018585581 6.290953018585582 9.434073814494903 0 0 0
328 1 7.869969406178071 7.869969406178071 11.004759922535815 0 0 0
329 1 9.431307875530324 6.29195810797373 9.431305343420444 0 0 0
330 1 11.004755610362848 7.822465970786446 11.004750067566832 0 0 0
331 1 12.578220621260014 6.29196482963301 9.431307623658011 0 0 0
332 1 14.139548064349095 7.869977660889671 11.004760059734217 0 0 0
333 1 15.718580550346768 6.290960094189819 9.434076792994054 0 0 0
334 1 17.290495005858173 7.862316972207688 11.004769977438633 0 0 0
335 1 18.86420087853697 6.289181534345001 9.433034993765235 0 0 0
336 1 20.43689473117065 7.860824848373523 11.004774320820799 0 0 0
337 1 22.009542004378478 9.43256223483558 9.432562448282804 -1 0 0
338 1 1.5717059575377095 11.004773848778171 11.004773951075563 0 0 0
339 1 3.1446621475566507 9.432316022715906 9.432315735021634 0 0 0
340 1 4.711896437375686 11.004768874215069 11.004767422521434 0 0 0
341 1 6.291958107973731 9.431307875530324 9.431305343420446 0 0 0
342 1 7.822465970786447 11.004755610362848 11.004750067566832 0 0 0
343 1 9.445999261283275 9.445999261283275 9.44599349774933 0 0 0
344 1 20.437282695569042 20.437282695569042 20.437282570181583 0 0 0
345 1 12.563492092199393 9.446017446195297 9.446011653796837 0 0 0
346 1 14.187036160895156 11.004755961967197 11.004750439274412 0 0 0
347 1 15.717561845476435 9.431313170170467 9.43131064193694 0 0 0
348 1 17.297627922110017 11.004768986101013 11.004767540914878 0 0 0
349 1 18.86487138561454 9.432317721791927 9.432317440477028 0 0 0
350 1 20.43782915304933 11.004773857095014 11.004773968878359 0 0 0
351 1 22.00954207046534 12.576986002532776 9.432562597646605 -1 0 0
352 1 1.5726447803442363 14.14872335696991 11.004774294732654 0 0 0
353 1 3.1446644554424963 12.577228620508068 9.432316253503265 0 0 0
354 1 4.719042094554328 14.147226484081521 11.004769902263883 0 0 0
355 1 6.29196482963301 12.578220621260014 9.431307623658011 0 0 0
356 1 7.869977660889672 14.139548064349095 11.004760059734217 0 0 0
357 1 9.446017446195297 12.563492092199393 9.446011653796836 0 0 0
358 1 11.004755961967199 14.187036160895158 11.004750439274412 0 0 0
359 1 12.563474669851608 12.563474669851606 9.446029566034845 0 0 0
360 1 14.13954073474737 14.13954073474737 11.004760226259657 0 0 0
361 1 15.717555525304629 12.578215744048688 9.43131284403524 0 0 0
362 1 17.290489301017324 14.147221633867698 11.004770004080848 0 0 0
363 1 18.86486924820144 12.577227031981737 9.432317899867943 0 0 0
364 1 20.436892988537263 14.148721855932287 11.004774329219975 0 0 0
365 1 22.009543966299514 15.720792660656953 9.432785289856993 -1 0 0
366 1 1.5724770019177294 17.292772087268908 11.004774505521691 0 0 0
367 1 3.1453418209509914 15.72036555307834 9.433035050249002 0 0 0
368 1 4.717389457690408 17.292155401819166 11.00477329529704 0 0 0
369 1 6.290960094189819 15.718580550346768 9.434076792994052 0 0 0
370 1 7.862316972207689 17.290495005858173 11.004769977438631 0 0 0
371 1 9.431313170170467 15.717561845476435 9.43131064193694 0 0 0
372 1 11.004768986101015 17.297627922110017 11.004767540914878 0 0 0
373 1 12.578215744048688 15.717555525304629 9.431312844035242 0 0 0
374 1 14.147221633867698 17.29048930101732 11.004770004080848 0 0 0
375 1 15.718573860012622 15.718573860012622 9.434079690849533 0 0 0
376 1 17.29215077464633 17.29215077464633 11.004773302462622 0 0 0
377 1 18.86419717833207 15.720362342210073 9.43303620047069 0 0 0
378 1 20.43706555767077 17.292771062831193 11.004774508624859 0 0 0
379 1 22.009545628308075 18.86502806497028 9.432767794472888 -1 0 0
380 1 1.57230326157289 20.437242955731513 11.004774206851383 0 0 0
381 1 3.1447098907856876 18.864836318971008 9.432835705714146 0 0 0
382 1 4.716774611751841 20.437066755700226 11.00477451826587 0 0 0
383 1 6.289181534345001 18.86420087853697 9.433034993765235 0 0 0
384 1 7.860824848373524 20.43689473117065 11.004774320820799 0 0 0
385 1 9.432317721791927 18.86487138561454 9.432317440477028 0 0 0
386 1 11.004773857095012 20.43782915304933 11.00477396887836 0 0 0
387 1 12.577227031981739 18.864869248201437 9.432317899867941 0 0 0
388 1 14.148721855932289 20.436892988537263 11.004774329219975 0 0 0
389 1 15.720362342210073 18.86419717833207 9.43303620047069 0 0 0
390 1 17.292771062831193 20.437065557670767 11.004774508624859 0 0 0
391 1 18.86483461562434 18.86483461562434 9.432836286847476 0 0 0
392 1 20.43724235172871 20.43724235172871 11.004774201508715 0 0 0
393 1 22.009546582920823 22.009546582920823 12.576801779529635 -1 -1 0
394 1 1.572291442620086 1.572291442620086 14.148813749267902 0 0 0
395 1 3.144517880953057 22.0095455836776 12.576780944241477 0 -1 0
396 1 4.716748516047345 1.5724842363278344 14.148713345246238 0 0 0
397 1 6.288754904626173 22.009543897166512 12.576764090666776 0 -1 0
398 1 7.860571174557675 1.5724617362344004 14.148976885513886 0 0 0
399 1 9.432562433961182 22.009542075930696 12.576986174810923 0 -1 0
400 1 11.00477410998538 1.572645078469412 14.148723295234698 0 0 0
401 1 12.576985805825993 22.009542144563806 12.576986027909406 0 -1 0
402 1 14.148975718315636 1.5724635883101212 14.148975863303752 0 0 0
403 1 15.720792016182548 22.009543993903115 12.576763572802042 0 -1 0
404 1 17.292797323060416 1.5724855291207929 14.148712370929815 0 0 0
405 1 18.86502784264712 22.009545635892767 12.576780683509659 0 -1 0
406 1 20.437254069522528 1.5722920637695648 14.14881338862057 0 0 0
407 1 22.0095455836776 3.144517880953057 12.576780944241477 -1 0 0
408 1 1.5724842363278342 4.716748516047345 14.148713345246238 0 0 0
409 1 3.144708831414224 3.144708831414224 12.576713538389246 0 0 0
410 1 4.717349124456025 4.717349124456025 14.148347276271723 0 0 0
411 1 6.2891797122794415 3.145339765195626 12.576513138602655 0 0 0
412 1 7.861018876963829 4.717983668493714 14.148524956475493 0 0 0
413 1 9.432316697716255 3.144665154093963 12.577228160144898 0 0 0
414 1 11.004770773263507 4.719043050471412 14.147225110968115 0 0 0
415 1 12.577227964494448 3.1446674329894027 12.577227660695998 0 0 0
416 1 14.148521972427133 4.7179893442845104 14.148521529155671 0 0 0
417 1 15.720363985101148 3.1453437331986738 12.57651191755228 0 0 0
418 1 17.29219251349261 4.717353497884184 14.148344678315805 0 0 0
419 1 18.864835610413998 3.144710611428674 12.57671291516276 0 0 0
420 1 20.43705868919622 4.716749568811759 14.148712501109594 0 0 0
421 1 22.009543897166512 6.288754904626173 12.576764090666776 -1 0 0
422 1 1.5724617362343989 7.860571174557675 14.148976885513884 0 0 0
423 1 3.1453397651956254 6.2891797122794415 12.576513138602655 0 0 0
424 1 4.717983668493715 7.861018876963829 14.148524956475491 0 0 0
425 1 6.29095703961313 6.29095703961313 12.575464134046236 0 0 0
426 1 7.867530202782251 7.867530202782251 14.142001007802541 0 0 0
427 1 9.431310842164006 6.291966843720926 12.57821739528874 0 0 0
428 1 11.004763295512253 7.869978904922013 14.139543455613039 0 0 0
429 1 12.578217747394671 6.2919735907995 12.578215207661692 0 0 0
430 1 14.141993438374282 7.867540170695972 14.141991280046044 0 0 0
431 1 15.718576602051815 6.290964154387087 12.575461294648877 0 0 0
432 1 17.291551241351293 7.861023382111303 14.148520525999963 0 0 0
433 1 18.86419899959955 6.289183142703504 12.576511997696155 0 0 0
434 1 20.437077301969545 7.86057259386508 14.148975485305018 0 0 0
435 1 22.009542075930696 9.43256243396118 12.576986174810925 -1 0 0
436 1 1.5726450784694117 11.004774109985378 14.148723295234696 0 0 0
437 1 3.144665154093963 9.432316697716255 12.577228160144898 0 0 0
438 1 4.719043050471412 11.004770773263507 14.147225110968115 0 0 0
439 1 6.291966843720927 9.431310842164006 12.57821739528874 0 0 0
440 1 7.8699789049220135 11.004763295512252 14.139543455613039 0 0 0
441 1 9.446022844187448 9.446022844187448 12.563480822109781 0 0 0