LAMMPS data file via write_data, version 2 Aug 2023, timestep = 22, units = metal

688 atoms
3 atom types

0 22.009546999999998 xlo xhi
0 22.009546999999998 ylo yhi
0 22.009546999999998 zlo zhi

Masses

1 183.84
2 1.008
3 4.0026

Atoms # atomic

1 1 22.007842377245517 22.009543836246756 22.00725741879479 -1 -1 -1
2 1 1.5701304768209565 1.5718967663467118 1.5696166016830928 0 0 0
3 1 3.1421588247607373 22.009543836672623 22.007257401877467 0 -1 -1
4 1 4.71413908676694 1.571820656477474 1.5695451919671737 0 0 0
5 1 6.286363561579309 22.00954383723986 22.007257810844948 0 -1 -1
6 1 7.858492217083805 1.5718065315210104 1.5695379259828055 0 0 0
7 1 9.430751942858725 22.009543837318635 22.00725814155744 0 -1 -1
8 1 11.002973465940535 1.5717786081488672 1.569505501114384 0 0 0
9 1 12.575237940148211 22.009543836762774 22.00725809558547 0 -1 -1
10 1 14.147509473575205 1.5717778171196892 1.5695180612256594 0 0 0
11 1 15.719697998068638 22.009543836144545 22.00725792380245 0 -1 -1
12 1 17.291922270941708 1.5718053799695693 1.5695230352755214 0 0 0
13 1 18.8639457349199 22.009543835795245 22.0072574794375 0 -1 -1
14 1 20.43596746402179 1.5718934704358116 1.5695930685707973 0 0 0
15 1 22.007772662562378 3.1439768722141452 22.007257407617477 -1 0 -1
16 1 1.569961093995248 4.71602171310464 1.5695544071894194 0 0 0
17 1 3.1419448970681025 3.14379610623301 22.007257496971718 0 0 -1
18 1 4.713673379629985 4.715571755562685 1.5693164708285496 0 0 0
19 1 6.286219149329664 3.1436977297255306 22.00725766871777 0 0 -1
20 1 7.858331494160278 4.715532100575698 1.569362861098509 0 0 0
21 1 9.430709783350965 3.1436532888450053 22.007257954679755 0 0 -1
22 1 11.002983192578881 4.71547455918322 1.5693355071114916 0 0 0
23 1 12.575270737068267 3.143617205654643 22.00725801507157 0 0 -1
24 1 14.147637583409987 4.715468344554604 1.5693372110851875 0 0 0
25 1 15.719790953965804 3.1436707940796884 22.007257819291606 0 0 -1
26 1 17.292238223262874 4.715568974746942 1.5693070079927485 0 0 0
27 1 18.864074066664585 3.143780542868989 22.00725760452514 0 0 -1
28 1 20.43591210495278 4.7160247612732675 1.5695575120776537 0 0 0
29 1 22.00764503453162 6.2882629473079685 22.007257701256595 -1 0 -1
30 1 1.5698607272638319 7.860402027721887 1.5695844559630294 0 0 0
31 1 3.1418073266239275 6.288133955924812 22.00725763508741 0 0 -1
32 1 4.713659878546101 7.860243602894894 1.5694100066238879 0 0 0
33 1 6.285672775690069 6.28756557319983 22.007257619569252 0 0 -1
34 1 7.857642377574123 7.8594970867255975 1.5686322066196023 0 0 0
35 1 9.430595483773466 6.287576767511192 22.007257710946092 0 0 -1
36 1 11.003025444389616 7.859673461389907 1.568900896234655 0 0 0
37 1 12.575387237827563 6.287538290695094 22.00725774546116 0 0 -1
38 1 14.148203491379743 7.859512971618315 1.5687384467010406 0 0 0
39 1 15.72019054819331 6.287572010314282 22.00725773144551 0 0 -1
40 1 17.292045657217145 7.8602588237110975 1.5694823309619144 0 0 0
41 1 18.86397100512994 6.28815463855213 22.007257714772916 0 0 -1
42 1 20.435739894185886 7.860403066606832 1.5696169881816964 0 0 0
43 1 22.007522918310777 9.432600705992598 22.007257828020865 -1 0 -1
44 1 1.5697934989896616 11.00477033594248 1.569581105325788 0 0 0
45 1 3.1417303992501457 9.432567103644187 22.00725773261309 0 0 -1
46 1 4.713633895046991 11.004770337008518 1.569421914517699 0 0 0
47 1 6.285708927755676 9.432427683173165 22.00725749299994 0 0 -1
48 1 7.857818899293061 11.004770339402507 1.568947707920002 0 0 0
49 1 9.430207785880704 9.432040519394205 22.007257178133226 0 0 -1
50 1 11.003065788034771 11.004770339553367 1.5674013668963438 0 0 0
51 1 12.575776775309517 9.432015001473895 22.007257316803937 0 0 -1
52 1 14.147973517871447 11.004770337995192 1.5691374027105773 0 0 0
53 1 15.720038703708743 9.432445773565268 22.007257632800663 0 0 -1
54 1 17.29196924385702 11.004770336141885 1.5695242626674495 0 0 0
55 1 18.86386221150387 9.432555590161307 22.00725792274583 0 0 -1
56 1 20.435662080270625 11.00477033583828 1.5696241466707606 0 0 0
57 1 22.007522917787743 12.57693996570834 22.00725782117645 -1 0 -1
58 1 1.5698607230926271 14.149138647527849 1.5695844413078408 0 0 0
59 1 3.1417303987491736 12.576973568418932 22.00725772285531 0 0 -1
60 1 4.713659869923228 14.149297075115895 1.5694099811099975 0 0 0
61 1 6.28570892741076 12.577112988972031 22.0072574769114 0 0 -1
62 1 7.857642370679809 14.150043597562107 1.5686321666434362 0 0 0
63 1 9.430207785525708 12.577500153094606 22.00725715830267 0 0 -1
64 1 11.003025443465248 14.149867223189057 1.5689008593763674 0 0 0
65 1 12.57577677528761 12.577525670601863 22.007257299195178 0 0 -1
66 1 14.148203493724784 14.150027707549809 1.5687384153368729 0 0 0
67 1 15.720038703320341 12.577094898518979 22.00725762138825 0 0 -1
68 1 17.292045658787416 14.149281850246895 1.5694823137620113 0 0 0
69 1 18.86386221120993 12.57698508168091 22.00725791582699 0 0 -1
70 1 20.435739893024312 14.149137607094476 1.5696169764089656 0 0 0
71 1 22.007645033625213 15.721277724703869 22.007257685979486 -1 0 -1
72 1 1.5699610887766093 17.293518966673496 1.569554387573379 0 0 0
73 1 3.1418073252383802 15.721406716585994 22.00725761251013 0 0 -1
74 1 4.713673369136161 17.293968931941603 1.5693164375606339 0 0 0
75 1 6.285672774251567 15.72197510062185 22.00725758367597 0 0 -1
76 1 7.858331488322542 17.2940085885394 1.5693628262651824 0 0 0
77 1 9.430595483526618 15.721963906082426 22.00725767398392 0 0 -1
78 1 11.002983191606665 17.294066128770567 1.5693354721563098 0 0 0
79 1 12.57538723792108 15.722002382195083 22.00725771125384 0 0 -1
80 1 14.147637586254925 17.294072339271914 1.5693371800215261 0 0 0
81 1 15.720190547744096 15.721968661571994 22.00725770315017 0 0 -1
82 1 17.29223822677951 17.29397170532491 1.5693069837805784 0 0 0
83 1 18.863971004287436 15.721386033251111 22.00725769774013 0 0 -1
84 1 20.435912104658193 17.293515916160242 1.5695574958540273 0 0 0
85 1 22.007772661855004 18.865563799972083 22.007257393696765 -1 0 -1
86 1 1.5701304749801293 20.437643917286362 1.569616592178938 0 0 0
87 1 3.1419448959492913 18.865744567420784 22.007257477433644 0 0 -1
88 1 4.714139083929988 20.43772003022952 1.569545180294905 0 0 0
89 1 6.286219148646919 18.865842944843862 22.007257645519765 0 0 -1
90 1 7.858492214980972 20.437734156876278 1.5695379126212978 0 0 0
91 1 9.430709783086131 18.865887385732435 22.007257930763807 0 0 -1
92 1 11.002973465506795 20.437762078606 1.5695054881936004 0 0 0
93 1 12.57527073691455 18.865923467988708 22.007257992280405 0 0 -1
94 1 14.147509474296447 20.43776286691725 1.569518049151429 0 0 0
95 1 15.719790953920901 18.865869878117195 22.00725779902779 0 0 -1
96 1 17.291922272271727 20.437735301418734 1.569523025740969 0 0 0
97 1 18.864074066013835 18.86576012883699 22.00725758857165 0 0 -1
98 1 20.435967463804026 20.43764721034952 1.5695930603630655 0 0 0
99 1 22.00782252324876 22.009543844038358 3.1416516960450185 -1 -1 0
100 1 1.5700393930145944 1.5718370210656258 4.713709274061633 0 0 0
101 1 3.141991966085099 22.009543848002856 3.1415331250626823 0 -1 0
102 1 4.71378339676771 1.5716258834903742 4.713374994094436 0 0 0
103 1 6.286243160308529 22.00954385015101 3.1414570722915927 0 -1 0
104 1 7.85831978454137 1.5716413673190355 4.71331380504219 0 0 0
105 1 9.430681766413233 22.00954385006421 3.1413995548302296 0 -1 0
106 1 11.002919421519971 1.5716091180890004 4.713247767326846 0 0 0
107 1 12.575243044083232 22.00954384836056 3.1413787453535544 0 -1 0
108 1 14.147577127191456 1.5715786685094355 4.713260697098995 0 0 0
109 1 15.71977236991132 22.00954384643413 3.1414126281690464 0 -1 0
110 1 17.292245057997032 1.5715629383364358 4.713275280262079 0 0 0
111 1 18.86408958198231 22.009543844182176 3.14146935254358 0 -1 0
112 1 20.435981154710614 1.571840177261113 4.713675120466196 0 0 0
113 1 22.00774904107057 3.1438078720878555 3.141503366344071 -1 0 0
114 1 1.5696665459627577 4.715623913997478 4.713323943452706 0 0 0
115 1 3.1418001989369126 3.1436615051680943 3.1413895157587803 0 0 0
116 1 4.713060009197925 4.714973788579555 4.712704176396753 0 0 0
117 1 6.2860605204244555 3.1435150891733383 3.141268502156069 0 0 0
118 1 7.858098239187047 4.714973482032469 4.712763433579444 0 0 0
119 1 9.430664605094146 3.1435102669191455 3.141245022439606 0 0 0
120 1 11.00294507771013 4.715038413688473 4.712783517331121 0 0 0
121 1 12.575260570640289 3.143455759562566 3.1412307791724916 0 0 0
122 1 14.147817376483964 4.714818721106904 4.7126974897197655 0 0 0
123 1 15.719907715614099 3.1434515724608594 3.141207333239372 0 0 0
124 1 17.292863214740226 4.7148285772356715 4.712577472101669 0 0 0
125 1 18.86420066228685 3.1436141433076275 3.141322912521732 0 0 0
126 1 20.436044328819403 4.71564161589262 4.713345241302511 0 0 0
127 1 22.007610202557107 6.28818017892823 3.1415187751104945 -1 0 0
128 1 1.5696713353630123 7.860309116741028 4.713399290165471 0 0 0
129 1 3.141615102943359 6.288005716368266 3.141290238603803 0 0 0
130 1 4.7132635479129 7.860118403145812 4.712859591471875 0 0 0
131 1 6.2851413729724666 6.2870184982301485 3.140214222386351 0 0 0
132 1 7.856043447535654 7.857704735035527 4.709582950098186 0 0 0
133 1 9.430639449392068 6.287279837453458 3.1406914201486558 0 0 0
134 1 11.003190961842748 7.8594553962208575 4.711609394835417 0 0 0
135 1 12.575371179925753 6.287190168311907 3.1406936842985083 0 0 0
136 1 14.149602559509527 7.857872673727695 4.710057905635812 0 0 0
137 1 15.720640701888994 6.287042156593936 3.140278913810662 0 0 0
138 1 17.292274594779606 7.860125638640074 4.71311851571346 0 0 0
139 1 18.864076031077 6.288026041856108 3.141368124745165 0 0 0
140 1 20.43573392721857 7.860318710793997 4.713504030772586 0 0 0
141 1 22.00747852365812 9.432576750661802 3.141544240296444 -1 0 0
142 1 1.5696305323200588 11.004770336948654 4.713419373807208 0 0 0
143 1 3.141614242112036 9.432556950700619 3.1413557164826273 0 0 0
144 1 4.713394654872069 11.004770336932271 4.713043992138642 0 0 0
145 1 6.285544941157704 9.432498994019522 3.1408929037693314 0 0 0
146 1 7.857920440673121 11.004770347637495 4.7122089808721865 0 0 0
147 1 9.429521369822233 9.431342726373199 3.1384082632706365 0 0 0
148 1 11.003284012542888 11.004770347702417 4.701451116193013 0 0 0
149 1 12.57645196733735 9.43128584459245 3.1388578017771103 0 0 0
150 1 14.147546634295237 11.004770336422645 4.712811442354712 0 0 0
151 1 15.720097864789118 9.432518344176163 3.141142194406405 0 0 0
152 1 17.2919291753413 11.00477033382314 4.713331487576029 0 0 0
153 1 18.863846718301676 9.432561711890004 3.1415049687720997 0 0 0
154 1 20.435613227039443 11.00477033565562 4.713533542092132 0 0 0
155 1 22.00747852103246 12.576963922833093 3.1415442335060573 -1 0 0
156 1 1.569671322591008 14.149231563310607 4.713399273793401 0 0 0
157 1 3.1416142351141887 12.576983724541723 3.141355704952245 0 0 0
158 1 4.713263515857434 14.149422289110793 4.712859552925619 0 0 0
159 1 6.28554493043515 12.577041688653349 3.1408928802670104 0 0 0
160 1 7.856043407640583 14.151835990480443 4.70958285817311 0 0 0
161 1 9.429521365221797 12.578197966561616 3.1384082280540713 0 0 0
162 1 11.003190960297854 14.150085323938898 4.711609324383485 0 0 0
163 1 12.576451968003568 12.578254841811281 3.1388577741755905 0 0 0
164 1 14.149602577011763 14.151668024049723 4.710057843491531 0 0 0
165 1 15.720097867703249 12.577022329980645 3.1411421794554 0 0 0
166 1 17.292274599960827 14.149415038045209 4.713118496288437 0 0 0
167 1 18.8638467184331 12.576978960602556 3.141504961585839 0 0 0
168 1 20.435733926156946 14.149221965112602 4.713504018310561 0 0 0
169 1 22.00761019765134 15.721360500630377 3.14151875861369 -1 0 0
170 1 1.569666528560462 17.293916781648978 4.713323921775117 0 0 0
171 1 3.1416150865773402 15.7215349704632 3.141290210644986 0 0 0
172 1 4.713059963773425 17.294566939302477 4.712704124484605 0 0 0
173 1 6.285141346984422 15.722522206990172 3.1402141673598054 0 0 0
174 1 7.858098216580955 17.294567240296477 4.712763385771933 0 0 0
175 1 9.43063944012483 15.722260868369782 3.140691368425867 0 0 0
176 1 11.002945074750956 17.29450230489334 4.71278346812893 0 0 0
177 1 12.57537118454616 15.722350532209981 3.1406936347577044 0 0 0
178 1 14.147817390642482 17.294721988354155 4.7126974454843005 0 0 0
179 1 15.720640713063856 15.722498533867608 3.140278874779038 0 0 0
180 1 17.29286323639709 17.29471212601747 4.712577436192073 0 0 0
181 1 18.864076033577724 15.721514636890438 3.1413681066147805 0 0 0
182 1 20.43604433159828 17.293899073055524 4.713345223307032 0 0 0
183 1 22.007749037871598 18.86573281573072 3.1415033516740785 -1 0 0
184 1 1.5700393888612225 20.437703673231916 4.713709266965538 0 0 0
185 1 3.1418001856423645 18.865879193474168 3.141389492455464 0 0 0
186 1 4.7137833855674085 20.437914828652072 4.713374979703675 0 0 0
187 1 6.286060509973412 18.866025613175243 3.141268474783546 0 0 0
188 1 7.858319778663119 20.437899345930468 4.713313789566071 0 0 0
189 1 9.43066459964542 18.866030435042095 3.141244994416142 0 0 0
190 1 11.002919420331287 20.437931591665144 4.713247751712228 0 0 0
191 1 12.57526057246795 18.866084937866276 3.1412307522878433 0 0 0
192 1 14.14757713070417 20.437962035535712 4.713260683289726 0 0 0
193 1 15.719907721132682 18.866089119376024 3.1412073115185284 0 0 0
194 1 17.292245062802976 20.437977758350158 4.71327526968506 0 0 0
195 1 18.86420066711899 18.865926545232185 3.1413228953031145 0 0 0
196 1 20.43598115549952 20.437700513093205 4.7136751138558415 0 0 0
197 1 22.007773062700394 22.009543845298765 6.2859286547440565 -1 -1 0
198 1 1.57000326312931 1.571850351558272 7.858089717205619 0 0 0
199 1 3.1419297907805324 22.009543849117115 6.2858599152827415 0 -1 0
200 1 4.713802152615069 1.5717113780563092 7.857987328578133 0 0 0
201 1 6.285832555096862 22.009543859546998 6.285435990917415 0 -1 0
202 1 7.85783044583382 1.5711289097724666 7.857451065722706 0 0 0
203 1 9.430524756744843 22.00954385835191 6.285369939339878 0 -1 0
204 1 11.00280302802367 1.5712274807829776 7.857480903892096 0 0 0
205 1 12.575237611572229 22.00954385496953 6.285345056299486 0 -1 0
206 1 14.147997125960138 1.5709501109243567 7.857375806692973 0 0 0
207 1 15.720125974003542 22.00954385023063 6.285335451921503 0 -1 0
208 1 17.292181031321416 1.5716077787918377 7.857864069867212 0 0 0
209 1 18.864082913741438 22.009543845709274 6.285773684886695 0 -1 0
210 1 20.43591121201904 1.571852510984825 7.858045125171872 0 0 0
211 1 22.00770330360279 3.143772891408913 6.285832388003876 -1 0 0
212 1 1.5697433685289317 4.715660029917122 7.857974131891212 0 0 0
213 1 3.1417063218707986 3.143564455289554 6.285707070889653 0 0 0
214 1 4.71331840062165 4.715116379418602 7.857779706479851 0 0 0
215 1 6.285342583348605 3.1426671766449332 6.284948663861757 0 0 0
216 1 7.856581609063788 4.712499232153875 7.85604985899914 0 0 0
217 1 9.430549026632805 3.1429773459289096 6.285061660051945 0 0 0
218 1 11.002751139730433 4.713984817388689 7.857083619738531 0 0 0
219 1 12.575223479938542 3.142849037384629 6.2850702561158425 0 0 0
220 1 14.149394654020872 4.711891219791728 7.855938685907624 0 0 0
221 1 15.72059920917976 3.1424417317667976 6.284813731092177 0 0 0
222 1 17.292526569466265 4.714996139084732 7.857686347399529 0 0 0
223 1 18.86420231283401 3.1435489264066843 6.28564195921239 0 0 0
224 1 20.435900637547203 4.715671193915458 7.857953089797978 0 0 0
225 1 22.007413629031777 6.287707492493417 6.285412252291878 -1 0 0
226 1 1.5687258692332646 7.859582332283317 7.8572705682261095 0 0 0
227 1 3.1405020005657165 6.287052767787986 6.284748267972884 0 0 0
228 1 4.710071508627553 7.857588319504919 7.855272584461957 0 0 0
229 1 6.28304945975072 6.284875997974517 6.282574550134228 0 0 0
230 1 7.8491980950880915 7.84989570470688 7.847751428986504 0 0 0
231 1 9.430782905053293 6.286376262064762 6.284205698807609 0 0 0
232 1 11.003788279476515 7.859789210758808 7.856613498213321 0 0 0
233 1 12.57534757497756 6.285966670698343 6.284244467953834 0 0 0
234 1 14.157810684890958 7.848854113459592 7.8477854839948185 0 0 0
235 1 15.72299535982194 6.284453419374575 6.282356348795726 0 0 0
236 1 17.29457312657943 7.858379529040572 7.856358941061035 0 0 0
237 1 18.86482434868429 6.287242901774552 6.285003295503993 0 0 0
238 1 20.4359927798954 7.859800279940975 7.857536707055691 0 0 0
239 1 22.00729580886346 9.432505281290753 6.285531708958141 -1 0 0
240 1 1.5690557256827218 11.004770337250235 7.8575221767236725 0 0 0
241 1 3.1412884815867477 9.432563757402042 6.28521121595465 0 0 0
242 1 4.712988526992036 11.004770333613626 7.857583349156435 0 0 0
243 1 6.285573552221484 9.433001539263776 6.284712100544832 0 0 0
244 1 7.8626390766947 11.004770326882248 7.861747895865111 0 0 0
245 1 9.425412067310576 9.426940281583112 6.277269439317597 0 0 0
246 1 11.002901557901644 11.004770296125441 7.791407284865464 0 0 0
247 1 12.580279156218694 9.426891582430905 6.27996310664608 0 0 0
248 1 14.143895316706645 11.004770262898104 7.860571292656743 0 0 0
249 1 15.72010426249914 9.432814279321532 6.2852852140626085 0 0 0
250 1 17.29167797799309 11.00477032580487 7.857913321331168 0 0 0
251 1 18.863871743441102 9.432586832526693 6.285491514369263 0 0 0
252 1 20.435497431852337 11.004770334802892 7.857686221848964 0 0 0
253 1 22.00729580431478 12.577035392941866 6.285531702145756 -1 0 0
254 1 1.5687258437892073 14.149958355298697 7.857270554844974 0 0 0
255 1 3.141288464139899 12.5769769212535 6.285211203866698 0 0 0
256 1 4.7100714068169305 14.151952414989319 7.855272530977775 0 0 0
257 1 6.285573506283749 12.576539149177185 6.284712053104794 0 0 0
258 1 7.84919773363037 14.159645335353826 7.8477510867098905 0 0 0
259 1 9.425412040295134 12.582600456340572 6.277269334309483 0 0 0
260 1 11.003788273953015 14.149751641647873 7.85661332057154 0 0 0
261 1 12.580279165088731 12.582649113131389 6.2799630337314465 0 0 0
262 1 14.157810869223407 14.160686726651052 7.847785262615799 0 0 0
263 1 15.72010426834449 12.576726373869594 6.28528519358827 0 0 0
264 1 17.294573175290463 14.151161166999303 7.856358897948725 0 0 0
265 1 18.863871746299328 12.576953836594651 6.285491505727096 0 0 0
266 1 20.435992786195666 14.149740400748739 7.85753669416345 0 0 0
267 1 22.007413620627272 15.721833195089085 6.285412236244947 -1 0 0
268 1 1.5697433575766648 17.293880659387668 7.857974124936761 0 0 0
269 1 3.14050195496656 15.722487940966232 6.284748234381935 0 0 0
270 1 4.713318371977866 17.29442433048274 7.857779694384969 0 0 0
271 1 6.283049332242512 15.72466480834838 6.28257442332311 0 0 0
272 1 7.856581550481967 17.297041557591296 7.856049796265645 0 0 0
273 1 9.430782876442052 15.723164499635857 6.284205610683566 0 0 0
274 1 11.00275114331392 17.295555938165634 7.857083552712312 0 0 0
275 1 12.575347596588445 15.723574073406649 6.284244377944774 0 0 0
276 1 14.149394677860217 17.297649512660794 7.855938634999588 0 0 0
277 1 15.722995423058189 15.725087322057664 6.282356266801389 0 0 0
278 1 17.292526583908796 17.294544555571463 7.857686327583705 0 0 0
279 1 18.864824368448183 15.72229779027321 6.2850032700296845 0 0 0
280 1 20.43590063943701 17.29386949061744 7.857953081061281 0 0 0
281 1 22.007703300398628 18.865767798437947 6.285832379653844 -1 0 0
282 1 1.5700032594239508 20.437690338107824 7.858089714471466 0 0 0
283 1 3.1417063059856027 18.865976246410746 6.285707058851482 0 0 0
284 1 4.713802144383922 20.437829322624673 7.857987325337496 0 0 0
285 1 6.285342551809652 18.866873562099734 6.284948628790073 0 0 0
286 1 7.857830436015829 20.43841181575977 7.857451052283055 0 0 0
287 1 9.430549015940406 18.866563384206014 6.285061625552692 0 0 0
288 1 11.002803027448861 20.438313236111075 7.857480887295103 0 0 0
289 1 12.575223486823004 18.866691685176818 6.285070219572048 0 0 0
290 1 14.147997128786681 20.43859059211023 7.857375794233667 0 0 0
291 1 15.720599223224736 18.867098979136536 6.284813704448934 0 0 0
292 1 17.292181034567413 20.43793291216055 7.857864063775956 0 0 0
293 1 18.864202318621892 18.865991765144045 6.2856419469791405 0 0 0
294 1 20.435911211958892 20.437688174839877 7.858045122023386 0 0 0
295 1 22.007708951864572 22.009543840226602 9.430287511241046 -1 -1 0
296 1 1.5699585769894995 1.5718534045787318 11.002484319266726 0 0 0
297 1 3.1418825148439122 22.0095438425453 9.430277967310309 0 -1 0
298 1 4.713771819700663 1.5717386017827826 11.0024841292988 0 0 0
299 1 6.285858993820907 22.009543846339884 9.43020299327419 0 -1 0
300 1 7.857937426678061 1.571443913438652 11.00248394497711 0 0 0
301 1 9.43021508740253 22.009543852532715 9.429894907282499 0 -1 0
302 1 11.002768109272079 1.570254261671832 11.002483773741274 0 0 0
303 1 12.575443074723468 22.00954384585362 9.42987386739749 0 -1 0
304 1 14.147919466552343 1.5711094239109182 11.002483976868586 0 0 0
305 1 15.720106356485298 22.00954384236691 9.430105943159754 0 -1 0
306 1 17.29217199866929 1.5716108170032406 11.002484286540229 0 0 0
307 1 18.864046420219513 22.009543840039893 9.430220136032757 0 -1 0
308 1 20.435868866713662 1.5718538332232534 11.00248433981135 0 0 0
309 1 22.00764447689469 3.143773700572136 9.4302626989793 -1 0 0
310 1 1.5697304167215989 4.715682984719955 11.00248427453908 0 0 0
311 1 3.141736115911127 3.143644195572489 9.430262234793659 0 0 0
312 1 4.71341660823813 4.715387242664098 11.002484389533263 0 0 0
313 1 6.285665291337951 3.143266050775504 9.430253628832924 0 0 0
314 1 7.857904650328648 4.714969463713772 11.002484232365966 0 0 0
315 1 9.429784138494036 3.1415923981753835 9.429446320566804 0 0 0
316 1 11.00256077539572 4.707714112883056 11.00248415850436 0 0 0
317 1 12.575824316475806 3.1410793252834477 9.429444237626806 0 0 0
318 1 14.14823227355354 4.713465818492571 11.002484348746295 0 0 0
319 1 15.720308644016377 3.14281230031419 9.430102996445763 0 0 0
320 1 17.292359214060205 4.715082855686612 11.002484368616996 0 0 0
321 1 18.864094763329703 3.1435792684321546 9.430215039850756 0 0 0
322 1 20.43585278199661 4.715660390685011 11.002484220030658 0 0 0
323 1 22.007412655751587 6.287771655366766 9.430183786324198 -1 0 0
324 1 1.5690498047351709 7.859849843223497 11.002484163253094 0 0 0
325 1 3.141237929388144 6.287484685405425 9.430215054704517 0 0 0
326 1 4.712527379626449 7.859937004530201 11.002484639379551 0 0 0
327 1 6.285353386161231 6.286804870489296 9.430422414596455 0 0 0
328 1 7.859434739111475 7.862966605822073 11.002484607737209 0 0 0
329 1 9.42724184529843 6.28196741803362 9.426460316003768 0 0 0
330 1 11.002570486592077 7.816759404391192 11.002484113121984 0 0 0
331 1 12.578538062427905 6.2798290687895415 9.426682282272223 0 0 0
332 1 14.14794482157486 7.8585323780745275 11.002484696552623 0 0 0
333 1 15.720787605487274 6.2861676649369675 9.430179489903475 0 0 0
334 1 17.292565308855025 7.859565946831451 11.00248463693266 0 0 0
335 1 18.86421903454174 6.287458877856989 9.430217504967164 0 0 0
336 1 20.435683987708796 7.859914232703098 11.00248418980147 0 0 0
337 1 22.0068076975722 9.432164389302736 9.42984928956709 -1 0 0
338 1 1.566874904203811 11.004770337143011 11.002484087820694 0 0 0
339 1 3.1386075592306146 9.431186714252442 9.428813643410804 0 0 0
340 1 4.69979632134645 11.00477033921539 11.002484556998079 0 0 0
341 1 6.279079817480394 9.425552562631209 9.423004424229092 0 0 0
342 1 7.772072734273245 11.0047703330248 11.002483322121591 0 0 0
343 1 9.39991708701845 9.38910303425901 9.38897514203961 0 0 0
344 1 20.43596748396649 20.437647166904025 20.4353747294748 0 0 0
345 1 12.613055949205453 9.382866581676593 9.397440210367812 0 0 0
346 1 14.18823188446074 11.00477034202717 11.002485679248094 0 0 0
347 1 15.723744842649332 9.428629542176166 9.42695028281141 0 0 0
348 1 17.297352529073635 11.004770338218036 11.002484806385013 0 0 0
349 1 18.86488494707996 9.43186374569926 9.429614035464727 0 0 0
350 1 20.4360254921258 11.004770336548749 11.002483947432783 0 0 0
351 1 22.006807692708904 12.577376286117818 9.42984928569235 -1 0 0
352 1 1.5690498042748662 14.149690830120868 11.002484163695385 0 0 0
353 1 3.1386075168703385 12.57835397238715 9.428813635864651 0 0 0
354 1 4.712527380144171 14.149603670688276 11.002484661096723 0 0 0
355 1 6.279079603973817 12.583988180975602 9.423004364918564 0 0 0
356 1 7.859434734456308 14.146574078488044 11.002484725392204 0 0 0
357 1 9.399915863693495 12.620438608137306 9.388974396701345 0 0 0
358 1 11.002570477386758 14.192781247949908 11.002483935100615 0 0 0
359 1 12.613056666004384 12.626674322192644 9.397439619882194 0 0 0
360 1 14.147944814016789 14.151008292529173 11.002484643598352 0 0 0
361 1 15.723744950925168 12.58091114037053 9.426950225126292 0 0 0
362 1 17.2925653044759 14.149974724909788 11.002484622831869 0 0 0
363 1 18.864884966525164 12.577676930077475 9.429614023978287 0 0 0
364 1 20.435683986073023 14.149626439444699 11.002484185984944 0 0 0
365 1 22.007412652188485 15.721769023105647 9.43018378231784 -1 0 0
366 1 1.5697304151373463 17.29385768878319 11.002484273233831 0 0 0
367 1 3.141237915177677 15.722056000236824 9.430215054365645 0 0 0
368 1 4.713416606503384 17.29415343296804 11.002484390274775 0 0 0
369 1 6.285353360421184 15.722735832622893 9.430422420576017 0 0 0
370 1 7.857904647539941 17.294571215208688 11.002484236778537 0 0 0
371 1 9.427241771684706 15.72757347429969 9.426460216593634 0 0 0
372 1 11.002560773027364 17.301826559183155 11.002484110740472 0 0 0
373 1 12.578538089900261 15.729711663952436 9.426682185190785 0 0 0
374 1 14.148232270684815 17.29607485302049 11.00248431127866 0 0 0
375 1 15.720787626724126 15.723373027277521 9.430179458060278 0 0 0
376 1 17.292359212124136 17.294457816027393 11.002484355873381 0 0 0
377 1 18.864219041079835 15.722081801317778 9.430217494019717 0 0 0
378 1 20.435852780655313 17.293880281318444 11.00248421545749 0 0 0
379 1 22.00764447433203 18.865766979785338 9.430262696062512 -1 0 0
380 1 1.5699585762923216 20.437687269086666 11.002484318729502 0 0 0
381 1 3.141736108488239 18.865896491194825 9.430262232776142 0 0 0
382 1 4.713771818655042 20.437802073460084 11.002484128183662 0 0 0
383 1 6.285665281979738 18.866274645241205 9.430253625297686 0 0 0
384 1 7.857937425798797 20.438096762668913 11.002483941750278 0 0 0
385 1 9.42978412886798 18.867948334320815 9.429446294876936 0 0 0
386 1 11.002768108754799 20.439286412166137 11.002483764776125 0 0 0
387 1 12.575824316266788 18.86846137404449 9.429444211050315 0 0 0
388 1 14.147919465964932 20.438431248268206 11.002483967622318 0 0 0
389 1 15.720308649236284 18.86672838731657 9.430102981009387 0 0 0
390 1 17.29217199811931 20.43792985477038 11.002484282490663 0 0 0
391 1 18.86409476500499 18.86596141189518 9.430215033726398 0 0 0
392 1 20.43586886610667 20.437686839100135 11.002484338109618 0 0 0
393 1 22.007709104608004 22.009543832820967 12.574681040875456 -1 -1 0
394 1 1.5700035324251707 1.5718504580064254 14.14687866294583 0 0 0
395 1 3.1418827426078684 22.009543831814547 12.574690364318565 0 -1 0
396 1 4.713802498098205 1.5717113825995057 14.146980932601242 0 0 0
397 1 6.285859148683252 22.009543829497332 12.57476499186091 0 -1 0
398 1 7.85783070597888 1.5711287869131962 14.14751701554855 0 0 0
399 1 9.43021527888326 22.00954382270057 12.575072634184947 0 -1 0
400 1 11.00280323197874 1.5712271321166165 14.14748711701097 0 0 0
401 1 12.575443152231406 22.009543827152527 12.575093836957636 0 -1 0
402 1 14.147997300713183 1.5709497587856347 14.14759248385047 0 0 0
403 1 15.720106435146661 22.009543829330237 12.574862242155048 0 -1 0
404 1 17.29218127839594 1.5716077136774544 14.147104312768658 0 0 0
405 1 18.86404659690023 22.009543831865038 12.574748471276735 0 -1 0
406 1 20.435911468077933 1.5718524728774155 14.14692332796889 0 0 0
407 1 22.00764468449825 3.143773722148126 12.574705766227055 -1 0 0
408 1 1.5697436336867692 4.715660193508917 14.14699420891911 0 0 0
409 1 3.1417363402110343 3.143644320024436 12.574706223224334 0 0 0
410 1 4.713318618757446 4.715116259971965 14.147188887453892 0 0 0
411 1 6.285665512402216 3.1432659547404715 12.574714753581494 0 0 0
412 1 7.856581647740697 4.712498251450873 14.148919156939394 0 0 0
413 1 9.429784232333219 3.1415917362708186 12.575521890822321 0 0 0
414 1 11.002751506295914 4.713983107387278 14.147885684770422 0 0 0
415 1 12.575824415264167 3.141078752053439 12.575523982421366 0 0 0
416 1 14.149395165274882 4.711890139011633 14.149030498560073 0 0 0
417 1 15.72030880652802 3.142812069706463 12.574865467080087 0 0 0
418 1 17.292526961572374 4.7149959019356045 14.147282430319041 0 0 0
419 1 18.864094880991214 3.143579204720489 12.574753529796888 0 0 0
420 1 20.43590094180299 4.715671259334398 14.147015388808825 0 0 0
421 1 22.00741278816108 6.287771746073358 12.574784526556526 -1 0 0
422 1 1.5687262489801554 7.859582533797468 14.147697683736396 0 0 0
423 1 3.1412380643268105 6.2874847134525735 12.574753553199882 0 0 0
424 1 4.710071994713062 7.857588573677038 14.149696110828023 0 0 0
425 1 6.2853536765359745 6.2868046181012085 12.57454651425548 0 0 0
426 1 7.849197749378433 7.849894107043687 14.157219082236523 0 0 0
427 1 9.427242216271102 6.281964999250994 12.578508768479633 0 0 0
428 1 11.003789257183508 7.859785919806028 14.14835715296487 0 0 0
429 1 12.578538261139174 6.279826663162592 12.578287071555664 0 0 0
430 1 14.157812698362823 7.848851693836847 14.15718589950427 0 0 0
431 1 15.720787793880609 6.286167273135459 12.574789687889366 0 0 0
432 1 17.29457371513432 7.858379295128009 14.148610091784036 0 0 0
433 1 18.86421925606769 6.28745885211191 12.574751110709766 0 0 0
434 1 20.435993175714152 7.859800440849594 14.147431484051866 0 0 0
435 1 22.006807964768484 9.432164409570314 12.575118716955267 -1 0 0
436 1 1.5690562179107745 11.004770336628614 14.147445800909427 0 0 0
437 1 3.138608011709433 9.43118669759567 12.57615481583945 0 0 0
438 1 4.7129894915407275 11.004770342922292 14.147385066578094 0 0 0
439 1 6.27908203105464 9.4255528189807 12.581964250271165 0 0 0
440 1 7.862640232656873 11.004770346096556 14.143220912027386 0 0 0
441 1 9.399921466074716 9.389093993362247 12.6159989970756 0 0 0
442 1 11.00290283371229 11.004770393043923 14.213539693262831 0 0 0