LAMMPS data file via write_data, version 2 Aug 2023, timestep = 23, units = metal

688 atoms
3 atom types

0 22.009546999999998 xlo xhi
0 22.009546999999998 ylo yhi
0 22.009546999999998 zlo zhi

Masses

1 183.84
2 1.008
3 4.0026

Atoms # atomic

1 1 22.00784957888667 22.009543836471597 22.007258002385665 -1 -1 -1
2 1 1.5702147015537755 1.5719516551240753 1.5697993547202964 0 0 0
3 1 3.142211475889507 22.009543842011013 22.00725789025855 0 -1 -1
4 1 4.714170998362787 1.5719092117840396 1.5697954538018652 0 0 0
5 1 6.286254473326966 22.009543844694907 22.00725799219833 0 -1 -1
6 1 7.858314458032786 1.5718812887612272 1.5697601214814156 0 0 0
7 1 9.430456147007945 22.00954384443105 22.007258177401948 0 -1 -1
8 1 11.00263340079711 1.5718236322178079 1.5697014923540087 0 0 0
9 1 12.57486786929841 22.009543840039214 22.00725847185719 0 -1 -1
10 1 14.14715457880282 1.5717708902084762 1.5696600184486387 0 0 0
11 1 15.719401820391278 22.009543835833064 22.007258409285352 0 -1 -1
12 1 17.291692313428396 1.5717884871766126 1.5696456224310733 0 0 0
13 1 18.863817040910675 22.009543833867045 22.00725816139545 0 -1 -1
14 1 20.435864594156953 1.5718995577062351 1.5697263473691327 0 0 0
15 1 22.007720078614437 3.1439557165001952 22.007257926810812 -1 0 -1
16 1 1.5699267810951425 4.715998792424956 1.56969635678387 0 0 0
17 1 3.1420413816733603 3.1439087398391417 22.007257782488836 0 0 -1
18 1 4.713836107864047 4.715825203831081 1.5696433905464156 0 0 0
19 1 6.286114055502507 3.1438122606539927 22.007257952767517 0 0 -1
20 1 7.858115625226136 4.715693527092792 1.5695662691564023 0 0 0
21 1 9.430424809484094 3.1437460055813555 22.00725828178203 0 0 -1
22 1 11.002676880332826 4.715567633970295 1.5694741225281705 0 0 0
23 1 12.574925346847099 3.14363505439573 22.007258536797682 0 0 -1
24 1 14.147365552110058 4.715439041395607 1.5694193877556286 0 0 0
25 1 15.719522907720687 3.1436141428200726 22.00725847054821 0 0 -1
26 1 17.291929555979788 4.715556821278149 1.5694502451348264 0 0 0
27 1 18.863866857631297 3.143775135898024 22.007258248364057 0 0 -1
28 1 20.43571589899888 4.715997325552101 1.569689153895348 0 0 0
29 1 22.007479039087933 6.288205050182763 22.007257715947496 -1 0 -1
30 1 1.5696895538917026 7.860353355907373 1.5696548226436704 0 0 0
31 1 3.1417569028751036 6.28810522309532 22.007257323770506 0 0 -1
32 1 4.71359905086505 7.8602118627325055 1.5694843501642284 0 0 0
33 1 6.285716210318243 6.287774701745315 22.007257242666668 0 0 -1
34 1 7.85767942828277 7.859737016382639 1.569057927329536 0 0 0
35 1 9.430335621358687 6.287668459160542 22.007257617512067 0 0 -1
36 1 11.002755517284877 7.859754429296792 1.5689277244994784 0 0 0
37 1 12.575115297514023 6.287545487619703 22.007257961721663 0 0 -1
38 1 14.147928025377123 7.859527275419812 1.5688315751126707 0 0 0
39 1 15.719900564626032 6.287532299388065 22.007258088303324 0 0 -1
40 1 17.291769878167877 7.860179513306366 1.5695618656368724 0 0 0
41 1 18.86372752478198 6.288075279284039 22.007258011659346 0 0 -1
42 1 20.43547334795233 7.86035627470812 1.569702805233434 0 0 0
43 1 22.007304504576442 9.432567933270708 22.00725755989058 -1 0 -1
44 1 1.569582657271369 11.00477032723447 1.569635746983217 0 0 0
45 1 3.1416048964687966 9.432536329851995 22.007257074536074 0 0 -1
46 1 4.713527090068546 11.004770325158049 1.5694507402091393 0 0 0
47 1 6.28566257355212 9.432437288598413 22.00725625022502 0 0 -1
48 1 7.857811468089247 11.004770345979665 1.5690558344215522 0 0 0
49 1 9.430081212937035 9.432104894514271 22.007255593492907 0 0 -1
50 1 11.002788433415018 11.004770352871418 1.5677692879753942 0 0 0
51 1 12.575481847536972 9.43208742530842 22.00725617725006 0 0 -1
52 1 14.147797451887085 11.004770315272204 1.569052441961891 0 0 0
53 1 15.719817057354856 9.432384246551065 22.007257412014084 0 0 -1
54 1 17.291696625007553 11.004770313029658 1.5695803039471512 0 0 0
55 1 18.86358912818731 9.432531379006766 22.007257806331616 0 0 -1
56 1 20.435381354214005 11.004770322830911 1.5696937659681967 0 0 0
57 1 22.007304500670166 12.576972738699705 22.007257460940394 -1 0 -1
58 1 1.5696895196143679 14.149187329366704 1.5696546260650837 0 0 0
59 1 3.1416048921574316 12.577004341469577 22.00725693981215 0 0 -1
60 1 4.71359894993917 14.149328867742355 1.5694839563885996 0 0 0
61 1 6.285662569248657 12.577103382932222 22.00725595002957 0 0 -1
62 1 7.857679271288002 14.149803868732656 1.5690570149030956 0 0 0
63 1 9.430081210187069 12.577435778779076 22.00725498674121 0 0 -1
64 1 11.002755501850542 14.14978654609245 1.568926509451657 0 0 0
65 1 12.575481846755816 12.5774532456357 22.0072554515748 0 0 -1
66 1 14.147928199091337 14.150013616637963 1.5688304853143322 0 0 0
67 1 15.719817055101526 12.577156424304391 22.007257080810547 0 0 -1
68 1 17.29176998155648 14.149361185724802 1.5695614162753657 0 0 0
69 1 18.863589123912373 12.577009292837321 22.007257648162287 0 0 -1
70 1 20.435473374508856 14.14918439998359 1.5697025936918916 0 0 0
71 1 22.007479029566824 15.72133562195988 22.007257483611454 -1 0 -1
72 1 1.5699267273256046 17.2935419782049 1.5696960774772635 0 0 0
73 1 3.141756891925633 15.721435454553013 22.00725699224183 0 0 -1
74 1 4.713835938894064 17.29371569073273 1.5696428333528916 0 0 0
75 1 6.285716199048091 15.721765983193295 22.00725653884558 0 0 -1
76 1 7.858115486396632 17.293847459865077 1.5695654745235474 0 0 0
77 1 9.430335617517663 15.7218722253787 22.007256633982607 0 0 -1
78 1 11.002676872105202 17.293973378223413 1.5694732128122768 0 0 0
79 1 12.575115299430447 15.721995190050643 22.00725693917312 0 0 -1
80 1 14.147365671444742 17.294101937356384 1.5694185326756165 0 0 0
81 1 15.719900558626227 15.722008369528806 22.007257255391295 0 0 -1
82 1 17.29192972730989 17.29398406730364 1.569449609482273 0 0 0
83 1 18.863727516559297 15.721465390347243 22.007257636113728 0 0 -1
84 1 20.435715951427945 17.293543442351844 1.569688851117971 0 0 0
85 1 22.007720070514495 18.865584955715264 22.007257706772325 -1 0 -1
86 1 1.5702146835324156 20.43758916875792 1.5697992115149115 0 0 0
87 1 3.142041371537547 18.865631942332776 22.007257465899997 0 0 -1
88 1 4.71417094546643 20.437631677326156 1.5697952433969398 0 0 0
89 1 6.286114048861004 18.865728427699874 22.007257494603866 0 0 -1
90 1 7.85831441719467 20.437659666575097 1.5697598398121508 0 0 0
91 1 9.430424807644567 18.865794679485067 22.007257715893537 0 0 -1
92 1 11.002633398676611 20.437717333668424 1.5697011886001722 0 0 0
93 1 12.574925347221743 18.865905623806544 22.00725796568642 0 0 -1
94 1 14.147154608403126 20.43777003973242 1.5696597445637097 0 0 0
95 1 15.71952290682676 18.86592652730069 22.007257977836332 0 0 -1
96 1 17.29169236565717 20.437752392587953 1.569645399505337 0 0 0
97 1 18.863866850211284 18.865765529799397 22.007257895219812 0 0 -1
98 1 20.4358646136449 20.43764126115825 1.5697261950813757 0 0 0
99 1 22.00785857362545 22.009543943991993 3.1418816823428686 -1 -1 0
100 1 1.5702579177030545 1.5719262862978118 4.71403409368222 0 0 0
101 1 3.1422514568837303 22.009544004164706 3.14195251116539 0 -1 0
102 1 4.714252253365008 1.5719427795450474 4.714073065640584 0 0 0
103 1 6.286255066562241 22.00954406834986 3.141901266515633 0 -1 0
104 1 7.858303151452698 1.5718926895187604 4.713935461539154 0 0 0
105 1 9.43044179940841 22.009544109866887 3.1418087241573875 0 -1 0
106 1 11.00258761390903 1.5717910790545777 4.713768076172975 0 0 0
107 1 12.574844079552932 22.00954410275857 3.1417093969540897 0 -1 0
108 1 14.147148410685364 1.5716424550316022 4.71366284762643 0 0 0
109 1 15.719430958336973 22.009544064837367 3.141651550574618 0 -1 0
110 1 17.291785051549606 1.571676503599569 4.713633927459533 0 0 0
111 1 18.863854481187342 22.00954400004627 3.1417186769993046 0 -1 0
112 1 20.43588487374001 1.5718810680238429 4.713893915390616 0 0 0
113 1 22.007718270925853 3.1438915582045404 3.1417725930997964 -1 0 0
114 1 1.5697840278018695 4.715821909596564 4.713710428818812 0 0 0
115 1 3.142057661050057 3.1438857019454534 3.1418364501032197 0 0 0
116 1 4.713794680514602 4.715786851066187 4.713707175074416 0 0 0
117 1 6.286090650386859 3.1437868042231956 3.1417584335181075 0 0 0
118 1 7.857991817541541 4.715570521892096 4.713432210269135 0 0 0
119 1 9.430409366543687 3.1437233623319103 3.1416426184433828 0 0 0
120 1 11.002611581923011 4.7154661996018294 4.713263055090467 0 0 0
121 1 12.574892766384371 3.1435555307601453 3.141536752567822 0 0 0
122 1 14.14765061899448 4.714808528064776 4.712913349377161 0 0 0
123 1 15.719610271393936 3.1434282779825646 3.141419274660627 0 0 0
124 1 17.29225679577511 4.715131908715357 4.7130571357148945 0 0 0
125 1 18.86391861077333 3.1436747894363197 3.141574063469338 0 0 0
126 1 20.435704273160326 4.715827097141625 4.713695756729859 0 0 0
127 1 22.007378870045034 6.288152272362346 3.1416981759305957 -1 0 0
128 1 1.569334566325152 7.8602565277568734 4.713561152769788 0 0 0
129 1 3.1415764298259794 6.28798332780901 3.1414864036117547 0 0 0
130 1 4.713065358842694 7.859927354314564 4.71289739790089 0 0 0
131 1 6.28555303616102 6.287638912999582 3.1411647203424806 0 0 0
132 1 7.856975937833159 7.859072684633538 4.711610604346248 0 0 0
133 1 9.430290968669528 6.287512634662492 3.1409434157246063 0 0 0
134 1 11.002786218157903 7.859649805667641 4.711257243419631 0 0 0
135 1 12.575165329611282 6.287261050772153 3.1407535897267254 0 0 0
136 1 14.149222351997876 7.858011397544065 4.710538842018758 0 0 0
137 1 15.720247322736522 6.287120527281205 3.140613186577077 0 0 0
138 1 17.29179565668294 7.8601346913826 4.713454851406857 0 0 0
139 1 18.86372976739988 6.28802118444458 3.141593008232745 0 0 0
140 1 20.4352238909842 7.860345872906114 4.7137655577929065 0 0 0
141 1 22.00713524764919 9.432558580055423 3.14166642608548 -1 0 0
142 1 1.5691507539350882 11.00477030851386 4.713531805398557 0 0 0
143 1 3.1413983852930425 9.432527841203434 3.1414341532010233 0 0 0
144 1 4.713078006826406 11.004770312910686 4.7130326020269555 0 0 0
145 1 6.28549379127397 9.43246088103556 3.1409430687192867 0 0 0
146 1 7.858000123233083 11.00477039385532 4.712033513493465 0 0 0
147 1 9.429601520420128 9.431624253792416 3.139262513296682 0 0 0
148 1 11.003354334936192 11.004770595302931 4.703433012719597 0 0 0
149 1 12.576187790178077 9.431441939685506 3.138866097193918 0 0 0
150 1 14.14754907438545 11.004770153172931 4.712347094672948 0 0 0
151 1 15.719841498937084 9.432408291734317 3.1411925555605795 0 0 0
152 1 17.291350949883793 11.004770237310252 4.713634198365226 0 0 0
153 1 18.86345338327287 9.43254783517827 3.1416776119403056 0 0 0
154 1 20.435020148020676 11.004770295339423 4.713739352437902 0 0 0
155 1 22.007135246203767 12.576982060164024 3.141666327470067 -1 0 0
156 1 1.569334435984701 14.149284203045884 4.713560937800134 0 0 0
157 1 3.141398311794913 12.577012819408115 3.1414340035534463 0 0 0
158 1 4.713064906918999 14.149613561424296 4.712896836218926 0 0 0
159 1 6.285493640231489 12.577079838797609 3.140942663120479 0 0 0
160 1 7.856974925424388 14.150469211031444 4.711608417497191 0 0 0
161 1 9.429601409052221 12.577916768829892 3.1392613623496732 0 0 0
162 1 11.002786087108332 14.149892452341104 4.711254404508188 0 0 0
163 1 12.576187956529585 12.578099051504285 3.138864647954758 0 0 0
164 1 14.149223539933175 14.151530549810513 4.710536280778935 0 0 0
165 1 15.719841615501725 12.57713233205391 3.141192122428922 0 0 0
166 1 17.291796151252033 14.149406159420597 4.713454183530933 0 0 0
167 1 18.863453453369328 12.576992778563026 3.141677439974573 0 0 0
168 1 20.43522402073792 14.149194833844073 4.71376531814108 0 0 0
169 1 22.00737887173235 15.721388486236648 3.1416979255622293 -1 0 0
170 1 1.5697838524396563 17.29371906227328 4.713710128932619 0 0 0
171 1 3.1415762189369945 15.72155752277067 3.141486016418925 0 0 0
172 1 4.713794034029641 17.293754600066553 4.713706406540401 0 0 0
173 1 6.285552536303384 15.721902330221575 3.141163666991814 0 0 0
174 1 7.857991281619488 17.293971227094016 4.7134310893551215 0 0 0
175 1 9.430290700417276 15.722028821206866 3.140941989804242 0 0 0
176 1 11.002611535385963 17.29407569354239 4.7132616902191335 0 0 0
177 1 12.575165554537502 15.7222803561397 3.140752105855008 0 0 0
178 1 14.147651124519866 17.294733276132195 4.712912081363488 0 0 0
179 1 15.720247877545338 15.722420756354333 3.1406119617559427 0 0 0
180 1 17.292257499161813 17.294409579812804 4.713056248390093 0 0 0
181 1 18.86372998603808 15.721519653332406 3.141592578458204 0 0 0
182 1 20.435704487113657 17.29371388619031 4.71369541992602 0 0 0
183 1 22.00771827629083 18.86564934134383 3.1417723617308475 -1 0 0
184 1 1.5702578656287773 20.43761466409644 4.7140339974085395 0 0 0
185 1 3.1420574860329786 18.8656553215741 3.1418361110179855 0 0 0
186 1 4.714252073547508 20.437598490364483 4.714072832048759 0 0 0
187 1 6.286090432390722 18.86575439501783 3.141757898449966 0 0 0
188 1 7.858303009875998 20.437648772668172 4.713935130662689 0 0 0
189 1 9.430409244136332 18.865817940646387 3.1416419511990643 0 0 0
190 1 11.002587606438244 20.43775044304156 4.713767704423225 0 0 0
191 1 12.574892841202367 18.86598574257579 3.1415360922447535 0 0 0
192 1 14.147148529573725 20.437898997819328 4.713662513614319 0 0 0
193 1 15.719610489354139 18.86611291113811 3.1414187157729896 0 0 0
194 1 17.291785222265183 20.437864747954844 4.713633686275376 0 0 0
195 1 18.863918801778258 18.865866232938956 3.141573688488619 0 0 0
196 1 20.435884927263903 20.437659887322567 4.7138938089982885 0 0 0
197 1 22.00789457275513 22.00954394918955 6.286146224631688 -1 -1 0
198 1 1.5703438979617625 1.5719795078329504 7.858320351026026 0 0 0
199 1 3.1423802720473843 22.00954400386063 6.286278478824034 0 -1 0
200 1 4.714475568214622 1.572083260195529 7.858443541586294 0 0 0
201 1 6.286373028570883 22.00954422615556 6.286228879635759 0 -1 0
202 1 7.858422829685436 1.5721085966834676 7.858278245604119 0 0 0
203 1 9.43042808035889 22.00954432352081 6.28605410170871 0 -1 0
204 1 11.002466996570291 1.571850776872077 7.858145893121771 0 0 0
205 1 12.57475785110059 22.009544309772796 6.285922628442196 0 -1 0
206 1 14.147224427434836 1.571417101669069 7.857928339872849 0 0 0
207 1 15.719501883989224 22.00954420062067 6.285780796911096 0 -1 0
208 1 17.29179258253068 1.5716399845573938 7.857984624755259 0 0 0
209 1 18.863860238211885 22.009544007903653 6.285940531583916 0 -1 0
210 1 20.4358522242587 1.5718926976994778 7.85818290828066 0 0 0
211 1 22.007744754792558 3.143883687057864 6.28605313505746 -1 0 0
212 1 1.5699012137487505 4.715924139462288 7.858168139616459 0 0 0
213 1 3.1421506887284862 3.143890970234023 6.2861369974088355 0 0 0
214 1 4.714067080998469 4.715965599216586 7.858208412259564 0 0 0
215 1 6.286249963153054 3.143959600524033 6.286108495142384 0 0 0
216 1 7.858396287536616 4.716198641423463 7.858016286962425 0 0 0
217 1 9.430396104279856 3.143756837460854 6.285779689651148 0 0 0
218 1 11.002387752599462 4.715411648003073 7.857902881130552 0 0 0
219 1 12.574806619094971 3.143248078102658 6.285632849797033 0 0 0
220 1 14.14801840598984 4.71358721273382 7.8570946827440755 0 0 0
221 1 15.719819097683084 3.1429855647569225 6.285425021201244 0 0 0
222 1 17.292164464941465 4.7150619065752295 7.857596481145019 0 0 0
223 1 18.863905976335378 3.1436280106578844 6.285810055452458 0 0 0
224 1 20.435655839992123 4.715794206938405 7.858062701814372 0 0 0
225 1 22.007058481930823 6.2879174637916835 6.285741519815833 -1 0 0
226 1 1.5683384636352267 7.859771166862417 7.857480367622145 0 0 0
227 1 3.14094599172075 6.287484829067176 6.285249365850161 0 0 0
228 1 4.710964663205158 7.858298915651223 7.85569556643972 0 0 0
229 1 6.2853376822125195 6.287552952308398 6.28513396587977 0 0 0
230 1 7.856452453856234 7.858776652524997 7.855085036769413 0 0 0
231 1 9.429926657317774 6.2871825093124025 6.284473286474829 0 0 0
232 1 11.003663436811928 7.856410757559302 7.852062647640276 0 0 0
233 1 12.57582598986201 6.285733698350808 6.2839449194431785 0 0 0
234 1 14.15343187276213 7.852856671039969 7.851585162123355 0 0 0
235 1 15.72153348881748 6.285653708909278 6.283561359528512 0 0 0
236 1 17.292219594588033 7.859665263513344 7.857677034512171 0 0 0
237 1 18.863853243875496 6.287744041909219 6.28560880602594 0 0 0
238 1 20.434833360526678 7.8601763945941086 7.857975463532204 0 0 0
239 1 22.00653532810974 9.43252379161768 6.28574680669418 -1 0 0
240 1 1.5679799025684609 11.004770326848684 7.857639368339399 0 0 0
241 1 3.1406142455587074 9.432422650902303 6.285205706696916 0 0 0
242 1 4.711174703243592 11.004770315377737 7.857165802402318 0 0 0
243 1 6.284472851589789 9.432071309313715 6.28377073240554 0 0 0
244 1 7.854897244225272 11.004770417796188 7.8552142000527505 0 0 0
245 1 9.427029186141503 9.429117538080648 6.281004202100563 0 0 0
246 1 11.006188958512888 11.004773469097664 7.800738623188682 0 0 0
247 1 12.580241085040406 9.426601353162145 6.279169690889134 0 0 0
248 1 14.144384371293457 11.004769526391062 7.858105014232697 0 0 0
249 1 15.719530769384235 9.432500188276133 6.285563389098231 0 0 0
250 1 17.289734087540122 11.004770173764706 7.858589598900491 0 0 0
251 1 18.862922075249656 9.432666120637192 6.2859265303617535 0 0 0
252 1 20.434121551793652 11.004770296660384 7.858028551086333 0 0 0
253 1 22.006535318493185 12.577016856410715 6.285746712994384 -1 0 0
254 1 1.5683381705383381 14.149769681859965 7.85748020508468 0 0 0
255 1 3.1406139933444104 12.577118032008753 6.285205516351214 0 0 0
256 1 4.71096310870138 14.151242625643889 7.855694743875775 0 0 0
257 1 6.284472157738342 12.577469598626987 6.283769971128023 0 0 0
258 1 7.85644670869371 14.150770185994627 7.855079120977045 0 0 0
259 1 9.427027795591808 12.58042558392062 6.28100001880617 0 0 0
260 1 11.003662915670859 14.153135550461696 7.852055423781537 0 0 0
261 1 12.580242641856714 12.582941761204776 6.279163751599874 0 0 0
262 1 14.15343769087734 14.156690069434859 7.8515780489120655 0 0 0
263 1 15.719531453700352 12.57704035727396 6.28556245930027 0 0 0
264 1 17.29222126707249 14.149876301744593 7.857675965920325 0 0 0
265 1 18.862922293444363 12.576874472760418 6.285926322061228 0 0 0
266 1 20.434833677055412 14.149364444729123 7.857975255178073 0 0 0
267 1 22.007058495573364 15.721623420299347 6.285741291944752 -1 0 0
268 1 1.569901092855268 17.293616741056958 7.858168084853876 0 0 0
269 1 3.14094535670455 15.722056328458558 6.285248892685188 0 0 0
270 1 4.7140666942524465 17.293575566785357 7.85820822759425 0 0 0
271 1 6.285335712920155 15.721989743988107 6.285131938341466 0 0 0
272 1 7.858395106972586 17.293344343623538 7.858014862537916 0 0 0
273 1 9.429925686646834 15.722360586229382 6.284470669247905 0 0 0
274 1 11.002387721683133 17.294131506052658 7.857900890850232 0 0 0
275 1 12.57582677388908 15.723809406529316 6.283942006098034 0 0 0
276 1 14.148019440906475 17.295955664610414 7.857093105854396 0 0 0
277 1 15.72153557116856 15.723889105156001 6.283558991661494 0 0 0
278 1 17.29216493843023 17.294479340321704 7.857596156754431 0 0 0
279 1 18.863853940839725 15.721797134486865 6.28560823427273 0 0 0
280 1 20.43565596412871 17.29374667135577 7.858062623999081 0 0 0
281 1 22.00774475777244 18.865657217651325 6.286053038216634 -1 0 0
282 1 1.570343862645233 20.437561361472902 7.858320333382634 0 0 0
283 1 3.1421504882677906 18.865650076158918 6.2861368342069435 0 0 0
284 1 4.714475467342976 20.43745780411928 7.8584434847238835 0 0 0
285 1 6.28624940943435 18.865582189827535 6.286107858646981 0 0 0
286 1 7.858422628191694 20.437433088508783 7.858277971631332 0 0 0
287 1 9.43039583454574 18.865785227064553 6.285778790796165 0 0 0
288 1 11.0024669885234 20.437691044739243 7.858145506324419 0 0 0
289 1 12.574806830505743 18.866293923454254 6.285631970002591 0 0 0
290 1 14.147224574095514 20.438124491070326 7.857928065962054 0 0 0
291 1 15.71981961261133 18.86655618336412 6.285424351784823 0 0 0
292 1 17.29179268432074 20.43790109053228 7.857984544742863 0 0 0
293 1 18.86390618076853 18.865913041147902 6.285809847926117 0 0 0
294 1 20.43585224936835 20.437648165080294 7.858182883947547 0 0 0
295 1 22.007895896390377 22.00954388134547 9.43037775019597 -1 -1 0
296 1 1.570346264847812 1.571994827432097 11.002484068821321 0 0 0
297 1 3.142461042760471 22.009543909101957 9.43044577522227 0 -1 0
298 1 4.714519566088075 1.5721661847911579 11.002483887013106 0 0 0
299 1 6.286596813497402 22.00954399947075 9.430528236152298 0 -1 0
300 1 7.858612470497376 1.5725162752608182 11.002483693700292 0 0 0
301 1 9.430404715147137 22.00954418012297 9.430363734861428 0 -1 0
302 1 11.002439141003313 1.5718418053483703 11.002483688230488 0 0 0
303 1 12.574766843183651 22.00954413050737 9.430276976054088 0 -1 0
304 1 14.14722613270126 1.5713885773309042 11.002483853385268 0 0 0
305 1 15.71952858600955 22.009543981225548 9.43023081964161 0 -1 0
306 1 17.291782949971005 1.5716545077054989 11.00248410012098 0 0 0
307 1 18.863835054997445 22.009543899466657 9.430294178251572 0 -1 0
308 1 20.43584604019454 1.5718908570082823 11.002484144058254 0 0 0
309 1 22.007732370166952 3.1439133453302164 9.430348551722004 -1 0 0
310 1 1.5699067094095331 4.716003438574847 11.002483984490762 0 0 0
311 1 3.142291487479692 3.1440904776222656 9.430438959412017 0 0 0
312 1 4.714280666938535 4.716478617684821 11.002483843192788 0 0 0
313 1 6.28663112270227 3.144598321027696 9.430633901532612 0 0 0
314 1 7.859480275062534 4.718376615055883 11.002483686553276 0 0 0
315 1 9.430309811260205 3.1445914326253894 9.430214981207186 0 0 0
316 1 11.002327301842351 4.714768031319322 11.002484207800181 0 0 0
317 1 12.57493536105419 3.1428900033491636 9.430076646070697 0 0 0
318 1 14.147751954137934 4.71344141968499 11.00248403490618 0 0 0
319 1 15.71983228309505 3.1429051443346827 9.430095694577735 0 0 0
320 1 17.291886303807285 4.71523869982299 11.00248424157161 0 0 0
321 1 18.863813362723786 3.1436565297253876 9.430264781510264 0 0 0
322 1 20.435595365881632 4.715793133594317 11.00248412248229 0 0 0
323 1 22.007050049994806 6.2879673916242345 9.43026662932084 -1 0 0
324 1 1.568452056247182 7.860044009642873 11.002484010497259 0 0 0
325 1 3.1414595767040154 6.287990654803848 9.430288394157687 0 0 0
326 1 4.7124775118067115 7.860633474049997 11.002484013558083 0 0 0
327 1 6.286466710969402 6.2886712168222605 9.430485633023233 0 0 0
328 1 7.859392797519478 7.865660464000791 11.002484411023788 0 0 0
329 1 9.430294493562394 6.291543084593825 9.429107628460574 0 0 0
330 1 11.003862139782427 7.842209560388471 11.002490501145084 0 0 0
331 1 12.576465880948875 6.284618813436837 9.428758332311533 0 0 0
332 1 14.154115432420019 7.850995185759363 11.002485043021364 0 0 0
333 1 15.721060331343418 6.285606094060119 9.429089349099462 0 0 0
334 1 17.291840477039877 7.8598080195054685 11.002484684728392 0 0 0
335 1 18.863686474354576 6.287647484867906 9.430201131034288 0 0 0
336 1 20.434648234478352 7.860187513830848 11.002484240791693 0 0 0
337 1 22.005508968438857 9.432333011928359 9.430039221263272 -1 0 0
338 1 1.5657217236416403 11.004770343069737 11.002484057754758 0 0 0
339 1 3.137892012446281 9.431296101889204 9.428873768708414 0 0 0
340 1 4.699202981633229 11.00477036329447 11.002484581635528 0 0 0
341 1 6.278781099438574 9.426136798496348 9.42250107363126 0 0 0
342 1 7.773574120260051 11.00477045215747 11.002485888176547 0 0 0
343 1 9.422581136428382 9.417118777401328 9.406659632334227 0 0 0
344 1 20.435864868623916 20.43764125617189 20.435242616951687 0 0 0
345 1 12.600760336359421 9.393480190092433 9.410347412578085 0 0 0
346 1 14.15654254508593 11.004770239474508 11.002493155864844 0 0 0
347 1 15.717675589091638 9.431128216174988 9.429774015072772 0 0 0
348 1 17.28936082859571 11.004770336173639 11.00248581858862 0 0 0
349 1 18.86220478063788 9.432540857442072 9.430245596531384 0 0 0
350 1 20.43344199992813 11.004770337597162 11.002484244305792 0 0 0
351 1 22.005508967233734 12.57720769094469 9.430039184751267 -1 0 0
352 1 1.5684520268613333 14.14949667551905 11.002484055997206 0 0 0
353 1 3.1378914702229888 12.578244744782165 9.428873692302664 0 0 0
354 1 4.71247748374586 14.148907239659305 11.002484267458241 0 0 0
355 1 6.278778156273532 12.583405102276668 9.422500138027718 0 0 0
356 1 7.859392798399546 14.143880211304813 11.002485788373695 0 0 0
357 1 9.422562132048002 12.59244176776069 9.406644708748145 0 0 0
358 1 11.003861779787645 14.167331234434117 11.002478189698117 0 0 0
359 1 12.600777647892059 12.61607601115423 9.410325745602103 0 0 0
360 1 14.154115111268 14.158545249816276 11.002484522548386 0 0 0
361 1 15.717679047788723 12.578413680452293 9.429772298522142 0 0 0
362 1 17.291840360994563 14.149732599310914 11.002484676845626 0 0 0
363 1 18.86220538138414 12.576999932183158 9.430245389426101 0 0 0
364 1 20.43464818978997 14.149353149277797 11.002484252727234 0 0 0
365 1 22.00705003132371 15.721573364228979 9.430266632760294 -1 0 0
366 1 1.569906681970929 17.293537244210956 11.002484024066638 0 0 0
367 1 3.1414593630599628 15.72155020418487 9.430288424911572 0 0 0
368 1 4.7142806339409065 17.29306208718405 11.00248388459476 0 0 0
369 1 6.28646625738001 15.720869982783002 9.43048565161565 0 0 0
370 1 7.859480227302348 17.291164107366814 11.002483588842939 0 0 0
371 1 9.430292766373961 15.71800273489122 9.429104292686754 0 0 0
372 1 11.00232725672713 17.29477268227238 11.002482913880858 0 0 0
373 1 12.576467266659828 15.724926071781791 9.428754565676511 0 0 0
374 1 14.147751884678865 17.29609917810828 11.002483518421744 0 0 0
375 1 15.721060867574584 15.723935180491356 9.429088847230092 0 0 0
376 1 17.291886256171836 17.294301936558842 11.00248414742665 0 0 0
377 1 18.86368666311178 15.72189333247308 9.43020108160844 0 0 0
378 1 20.435595331351976 17.293747524210744 11.002484140989475 0 0 0
379 1 22.007732357140686 18.865627421804 9.43034856121087 -1 0 0
380 1 1.570346255082148 20.437545853185117 11.002484075641508 0 0 0
381 1 3.1422914029136737 18.865450355603038 9.430438957226565 0 0 0
382 1 4.714519553717939 20.43737451608806 11.002483896827908 0 0 0
383 1 6.286630958768835 18.86494275803991 9.430633844100907 0 0 0
384 1 7.858612455160536 20.437024438191024 11.002483638851771 0 0 0
385 1 9.430309615886445 18.86495057243692 9.43021435455629 0 0 0
386 1 11.002439132706941 20.43769888671516 11.002483540776101 0 0 0
387 1 12.574935448222844 18.86665179926197 9.430076024342528 0 0 0
388 1 14.147226119571046 20.43815207000309 11.002483744657987 0 0 0
389 1 15.719832414434096 18.866635911299298 9.430095519788646 0 0 0
390 1 17.291782935991954 20.437886136874955 11.00248408063241 0 0 0
391 1 18.863813430456943 18.86588428875324 9.430264758981384 0 0 0
392 1 20.43584602803417 20.437649803518312 11.002484150544225 0 0 0
393 1 22.007896280796913 22.009543789667568 12.574590467538131 -1 -1 0
394 1 1.5703443443223974 1.5719793406257498 14.146647781680256 0 0 0
395 1 3.142461324173051 22.009543781041053 12.574522240389264 0 -1 0
396 1 4.714475683209205 1.5720827418055865 14.14652450191592 0 0 0
397 1 6.2865968725030985 22.00954370667014 12.574439387398963 0 -1 0
398 1 7.858422553689605 1.57210683472632 14.146690283102894 0 0 0
399 1 9.430404737520348 22.009543527224746 12.574603845358894 0 -1 0
400 1 11.00246731433245 1.5718481788437269 14.146823024474772 0 0 0
401 1 12.574767031764623 22.009543538731407 12.5746906502772 0 -1 0
402 1 14.14722527099968 1.5714152021557604 14.14704043467385 0 0 0
403 1 15.71952891809535 22.009543664816796 12.57473721674356 0 -1 0
404 1 17.291793379901662 1.5716391709214315 14.146983913833196 0 0 0
405 1 18.863835341400428 22.009543752838752 12.574674102901655 0 -1 0
406 1 20.435852832809502 1.5718923568705687 14.146785482892756 0 0 0
407 1 22.00773268953135 3.1439132555481506 12.574619632408197 -1 0 0
408 1 1.5699015523144677 4.715923815634773 14.146800043902402 0 0 0
409 1 3.1422917161811394 3.1440903301292407 12.574529025198173 0 0 0
410 1 4.714066876904133 4.7159646038971 14.146759959365804 0 0 0
411 1 6.286631101154331 3.144597456982474 12.574333871915758 0 0 0
412 1 7.858394926701448 4.716193645973073 14.14695419185637 0 0 0
413 1 9.430309691912413 3.1445880333291845 12.574753547396867 0 0 0
414 1 11.002388507650753 4.715402964287419 14.147069489959708 0 0 0
415 1 12.574935862406518 3.142886607518326 12.574891857449472 0 0 0
416 1 14.148021344344217 4.713581205305831 14.147876875637744 0 0 0
417 1 15.719832864150675 3.1429039615587278 12.574872649676802 0 0 0
418 1 17.292166274696555 4.715059974423373 14.147372767536408 0 0 0
419 1 18.863813906299082 3.1436560502329205 12.574703571825028 0 0 0
420 1 20.435656788854335 4.715793639447372 14.146905800786078 0 0 0
421 1 22.007050383759886 6.287967186833275 12.574701542577353 -1 0 0
422 1 1.5683388993579064 7.859770874691577 14.14748794109115 0 0 0
423 1 3.141459617765765 6.287990320650286 12.574679522648315 0 0 0
424 1 4.710963680536068 7.858297291765022 14.149273411900259 0 0 0
425 1 6.286466488811197 6.28866929103175 12.574482630974165 0 0 0
426 1 7.856446542619991 7.8587654510999405 14.149891492937021 0 0 0
427 1 9.430293773458963 6.2915305443738445 12.5758649904114 0 0 0
428 1 11.003665328007314 7.856387587133795 14.1529225432964 0 0 0
429 1 12.57646848311625 6.2846056704961315 12.576215434889933 0 0 0
430 1 14.153444797079642 7.852841725179436 14.153398116811555 0 0 0
431 1 15.721062036866964 6.285603477537327 12.575880429363739 0 0 0
432 1 17.29222434811678 7.859662276465359 14.147294640941453 0 0 0
433 1 18.863687386391685 6.287646868437062 12.574767571963651 0 0 0
434 1 20.434834924373867 7.860175824103593 14.146993432162743 0 0 0
435 1 22.00550954614712 9.43233298487346 12.57492901846353 -1 0 0
436 1 1.5679811991949055 11.004770355956316 14.147328631935602 0 0 0
437 1 3.1378920100928247 9.431295740603623 12.576094512375983 0 0 0
438 1 4.71117747658797 11.004770377333605 14.147801238432445 0 0 0
439 1 6.278779121680238 9.426133088816265 12.582468826126913 0 0 0
440 1 7.85490614802946 11.004770257343912 14.1497431411648 0 0 0
441 1 9.422576382305094 9.41707335393021 12.598336642650494 0 0 0
442 1 11.006193707211844 11.004767214712823 14.204162326985696 0 0 0