LAMMPS data file via write_data, version 2 Aug 2023, timestep = 10, units = metal

686 atoms
3 atom types

0 22.009546999999998 xlo xhi
0 22.009546999999998 ylo yhi
0 22.009546999999998 zlo zhi

Masses

1 183.84
2 1.008
3 4.0026

Atoms # atomic

1 1 22.00954637060959 22.00954637060959 22.009546173168562 -1 -1 -1
2 1 1.5722683232432626 1.5722683232432635 1.5722681567093946 0 0 0
3 1 3.1443958896812596 22.00954627838186 22.009546051150423 0 -1 -1
4 1 4.716578761060038 1.5722779933790332 1.5722777947268443 0 0 0
5 1 6.2886425812101585 22.009546247333986 22.009546011091086 0 -1 -1
6 1 7.860739275270855 1.5722986405454773 1.572298427217263 0 0 0
7 1 9.432749092087978 22.009546306837063 22.00954608785115 0 -1 -1
8 1 11.00477413589458 1.57230832111253 1.5723081113697275 0 0 0
9 1 12.576798798472678 22.009546307955535 22.00954608971397 0 -1 -1
10 1 14.148808465533389 1.572299019210454 1.5722988086334373 0 0 0
11 1 15.720904769330858 22.009546260584965 22.009546029145664 0 -1 -1
12 1 17.29296785190668 1.5722785589976076 1.5722783635824205 0 0 0
13 1 18.86515032373232 22.009546290193068 22.009546067486312 0 -1 -1
14 1 20.437277312264882 1.572268633625548 1.5722684701628498 0 0 0
15 1 22.009546278381862 3.14439588968126 22.009546051150423 -1 0 -1
16 1 1.5722779933790327 4.716578761060038 1.5722777947268443 0 0 0
17 1 3.1444789410482623 3.1444789410482623 22.00954562473828 0 0 -1
18 1 4.7166962902832745 4.7166962902832745 1.5724482686585781 0 0 0
19 1 6.288700313802712 3.1445038743574236 22.00954527434374 0 0 -1
20 1 7.860841230097069 4.716767835682345 1.5724900577725278 0 0 0
21 1 9.432772205207511 3.144532312406686 22.009545003405737 0 0 -1
22 1 11.004774306477902 4.716798451551887 1.5724772971395244 0 0 0
23 1 12.576776109742392 3.1445325999773623 22.009545022783616 0 0 -1
24 1 14.148706409628453 4.716768928966777 1.5724910997018922 0 0 0
25 1 15.720846877854287 3.1445046988518834 22.009545300487215 0 0 -1
26 1 17.29284950643761 4.716697832622971 1.5724495083664796 0 0 0
27 1 18.865066889480385 3.144479759619307 22.009545651255486 0 0 -1
28 1 20.43726729246881 4.7165792876527535 1.572278252805757 0 0 0
29 1 22.009546247333986 6.288642581210159 22.009546011091086 -1 0 -1
30 1 1.5722986405454757 7.860739275270855 1.572298427217263 0 0 0
31 1 3.1445038743574236 6.288700313802712 22.009545274343736 0 0 -1
32 1 4.716767835682344 7.86084123009707 1.572490057772529 0 0 0
33 1 6.288644631210213 6.288644631210212 22.009543658833834 0 0 -1
34 1 7.860623502581693 7.860623502581692 1.5725162350478312 0 0 0
35 1 9.432800728635804 6.288785858064875 22.00954259716516 0 0 -1
36 1 11.004773982501021 7.860864434939461 1.5726732154114509 0 0 0
37 1 12.576747788649985 6.288786414446241 22.00954261721114 0 0 -1
38 1 14.148923154700327 7.86062473228597 1.5725182660623593 0 0 0
39 1 15.720902098832946 6.28864589568491 22.00954371621741 0 0 -1
40 1 17.292777563791127 7.860842397879013 1.5724916227924013 0 0 0
41 1 18.86504166446234 6.2887011644541575 22.009545314072668 0 0 -1
42 1 20.43724648869866 7.860739679927737 1.572298945484257 0 0 0
43 1 22.00954630683706 9.432749092087978 22.00954608785115 -1 0 -1
44 1 1.572308321112531 11.004774135894582 1.5723081113697275 0 0 0
45 1 3.144532312406686 9.432772205207511 22.009545003405737 0 0 -1
46 1 4.716798451551887 11.004774306477902 1.572477297139524 0 0 0
47 1 6.288785858064875 9.432800728635806 22.00954259716516 0 0 -1
48 1 7.860864434939461 11.004773982501023 1.5726732154114507 0 0 0
49 1 9.432603369484287 9.432603369484287 22.009540482100835 0 0 -1
50 1 11.004773669351385 11.004773669351385 1.5718343576745284 0 0 0
51 1 12.576944733316498 9.432603598372681 22.00954052598988 0 0 -1
52 1 14.148681722698825 11.004773987856808 1.5726753857137636 0 0 0
53 1 15.720760620357197 9.432801348920274 22.00954268123418 0 0 -1
54 1 17.292746746217702 11.004774307842368 1.5724789280000955 0 0 0
55 1 18.865013226034222 9.432772540612213 22.0095450504375 0 0 -1
56 1 20.437236813970454 11.004774130185236 1.5723086512413362 0 0 0
57 1 22.009546307955535 12.576798798472678 22.00954608971397 -1 0 -1
58 1 1.5722990192104547 14.148808465533389 1.5722988086334382 0 0 0
59 1 3.1445325999773632 12.576776109742392 22.009545022783616 0 0 -1
60 1 4.716768928966777 14.148706409628453 1.5724910997018915 0 0 0
61 1 6.288786414446241 12.576747788649985 22.00954261721114 0 0 -1
62 1 7.86062473228597 14.148923154700327 1.5725182660623591 0 0 0
63 1 9.432603598372681 12.576944733316498 22.00954052598988 0 0 -1
64 1 11.004773987856808 14.148681722698825 1.5726753857137632 0 0 0
65 1 12.57694450641914 12.57694450641914 22.009540577311302 0 0 -1
66 1 14.148921941422651 14.148921941422651 1.5725202932283038 0 0 0
67 1 15.720760069278953 12.576747167486344 22.009542702665627 0 0 -1
68 1 17.2927764876128 14.148705244850758 1.572492652506828 0 0 0
69 1 18.86501295272419 12.576775761028937 22.00954506279064 0 0 -1
70 1 20.43724614173349 14.148808063142841 1.57229931046463 0 0 0
71 1 22.009546260584965 15.72090476933086 22.00954602914566 -1 0 -1
72 1 1.5722785589976067 17.29296785190668 1.5722783635824198 0 0 0
73 1 3.1445046988518843 15.720846877854287 22.009545300487215 0 0 -1
74 1 4.716697832622971 17.29284950643761 1.572449508366479 0 0 0
75 1 6.288645895684911 15.720902098832946 22.00954371621741 0 0 -1
76 1 7.860842397879013 17.292777563791127 1.572491622792401 0 0 0
77 1 9.432801348920274 15.720760620357197 22.009542681234183 0 0 -1
78 1 11.004774307842368 17.292746746217702 1.572478928000095 0 0 0
79 1 12.576747167486344 15.720760069278953 22.009542702665627 0 0 -1
80 1 14.148705244850758 17.2927764876128 1.5724926525068266 0 0 0
81 1 15.72090084438788 15.72090084438788 22.009543771891405 0 0 -1
82 1 17.292847990035444 17.292847990035444 1.5724507339232394 0 0 0
83 1 18.865040857367074 15.720846025295172 22.00954533210518 0 0 -1
84 1 20.437266754259554 17.292967331782027 1.572278806315755 0 0 0
85 1 22.009546290193065 18.86515032373232 22.009546067486312 -1 0 -1
86 1 1.5722686336255474 20.437277312264882 1.572268470162849 0 0 0
87 1 3.144479759619307 18.865066889480385 22.009545651255486 0 0 -1
88 1 4.7165792876527535 20.43726729246881 1.5722782528057568 0 0 0
89 1 6.2887011644541575 18.86504166446234 22.009545314072668 0 0 -1
90 1 7.860739679927737 20.43724648869866 1.572298945484257 0 0 0
91 1 9.432772540612213 18.865013226034222 22.0095450504375 0 0 -1
92 1 11.004774130185236 20.437236813970454 1.572308651241336 0 0 0
93 1 12.576775761028937 18.86501295272419 22.00954506279064 0 0 -1
94 1 14.148808063142843 20.43724614173349 1.57229931046463 0 0 0
95 1 15.720846025295172 18.865040857367074 22.00954533210518 0 0 -1
96 1 17.292967331782027 20.437266754259554 1.5722788063157556 0 0 0
97 1 18.86506609471936 18.86506609471936 22.009545678430204 0 0 -1
98 1 20.437277017560017 20.437277017560017 1.5722687831800184 0 0 0
99 1 22.00954627655734 22.00954627655734 3.1443957629762473 -1 -1 0
100 1 1.5722779765773158 1.5722779765773163 4.716578780897114 0 0 0
101 1 3.1444788131469044 22.00954594946954 3.1444787561705563 0 -1 0
102 1 4.716696211750367 1.5724485883290884 4.716696264011218 0 0 0
103 1 6.288700181137467 22.00954568069653 3.144503644662537 0 -1 0
104 1 7.860841183150194 1.5724905257549138 4.716767784069684 0 0 0
105 1 9.432772152985704 22.0095454721541 3.1445320830634067 0 -1 0
106 1 11.004774307120849 1.572477841897185 4.716798380769477 0 0 0
107 1 12.5767761645356 22.009545488766534 3.1445323723006697 0 -1 0
108 1 14.148706457818111 1.5724915613106811 4.716768875735125 0 0 0
109 1 15.720847010206471 22.009545701531888 3.1445044709582195 0 -1 0
110 1 17.292849585428453 1.5724498223303707 4.716697805170773 0 0 0
111 1 18.865067014689895 22.009545970660323 3.1444795776870897 0 -1 0
112 1 20.437267310641413 1.572278431225272 4.716579306165655 0 0 0
113 1 22.009545949469537 3.1444788131469044 3.1444787561705567 -1 0 0
114 1 1.5724485883290884 4.716696211750368 4.716696264011218 0 0 0
115 1 3.144651046793587 3.1446510467935873 3.144650969122915 0 0 0
116 1 4.717419816150761 4.717419816150761 4.717419799611373 0 0 0
117 1 6.288815916146147 3.1446716904309095 3.1446715551745745 0 0 0
118 1 7.8611883343075055 4.71735538571693 4.717355151871115 0 0 0
119 1 9.432832788766522 3.144723076321885 3.14472288192617 0 0 0
120 1 11.004773074958374 4.71740598378401 4.717405590662117 0 0 0
121 1 12.57671538133506 3.1447237701222592 3.144723577133406 0 0 0
122 1 14.148357066533025 4.717358339488082 4.717358106657241 0 0 0
123 1 15.720730668124991 3.144673257363976 3.1446731236598655 0 0 0
124 1 17.29212363438982 4.717423252320888 4.717423235528394 0 0 0
125 1 18.864894190030586 3.1446523229283274 3.1446522473563956 0 0 0
126 1 20.43709512334428 4.716697268540503 4.716697319725304 0 0 0
127 1 22.009545680696533 6.288700181137468 3.1445036446625365 -1 0 0
128 1 1.5724905257549135 7.860841183150193 4.716767784069684 0 0 0
129 1 3.144671690430909 6.288815916146147 3.144671555174575 0 0 0
130 1 4.71735538571693 7.861188334307505 4.717355151871114 0 0 0
131 1 6.288998435893142 6.288998435893143 3.145139559348906 0 0 0
132 1 7.861149256476609 7.861149256476609 4.718151987832634 0 0 0
133 1 9.433031916066417 6.289209467809371 3.1453508429937846 0 0 0
134 1 11.004770143677225 7.862350247423638 4.719069614208971 0 0 0
135 1 12.576514643155035 6.289210742640772 3.14535250835815 0 0 0
136 1 14.148390394668391 7.861152905576574 4.718158079923379 0 0 0
137 1 15.720546201402824 6.289001189681788 3.1451432036560765 0 0 0
138 1 17.292185711784835 7.861191108640641 4.717359557323482 0 0 0
139 1 18.864872662339735 6.288817466921959 3.144673355971478 0 0 0
140 1 20.43705192645908 7.860842056882017 4.716769071792396 0 0 0
141 1 22.0095454721541 9.432772152985704 3.144532083063406 -1 0 0
142 1 1.5724778418971854 11.004774307120849 4.716798380769477 0 0 0
143 1 3.144723076321886 9.432832788766522 3.1447228819261697 0 0 0
144 1 4.71740598378401 11.004773074958374 4.717405590662118 0 0 0
145 1 6.289209467809371 9.433031916066417 3.1453508429937855 0 0 0
146 1 7.862350247423638 11.004770143677225 4.719069614208971 0 0 0
147 1 9.432384686811082 9.432384686811082 3.144841346492652 0 0 0
148 1 11.004768032499205 11.004768032499205 4.712631510547968 0 0 0
149 1 12.577159123593473 9.432385316514074 3.144843961961724 0 0 0
150 1 14.14718666862923 11.004770164963816 4.719076189627138 0 0 0
151 1 15.720333661330269 9.433033251699749 3.1453550388424047 0 0 0
152 1 17.292133739121855 11.00477311659881 4.717410367987007 0 0 0
153 1 18.86482068169446 9.432833461581144 3.1447248999940838 0 0 0
154 1 20.43706405979115 11.004774314676851 4.71679974858178 0 0 0
155 1 22.009545488766534 12.5767761645356 3.1445323723006697 -1 0 0
156 1 1.5724915613106807 14.148706457818111 4.7167688757351245 0 0 0
157 1 3.1447237701222592 12.57671538133506 3.1447235771334054 0 0 0
158 1 4.717358339488082 14.148357066533025 4.717358106657241 0 0 0
159 1 6.289210742640773 12.576514643155036 3.14535250835815 0 0 0
160 1 7.861152905576574 14.148390394668391 4.718158079923379 0 0 0
161 1 9.432385316514072 12.577159123593473 3.144843961961724 0 0 0
162 1 11.004770164963816 14.147186668629232 4.719076189627138 0 0 0
163 1 12.577158504012798 12.577158504012798 3.1448465705922537 0 0 0
164 1 14.14838677880968 14.14838677880968 4.718164158340324 0 0 0
165 1 15.72033239798032 12.576513344532447 3.145356709949201 0 0 0
166 1 17.292182794190747 14.14835432348771 4.7173625061091 0 0 0
167 1 18.86482001440893 12.576714728159851 3.144725577741615 0 0 0
168 1 20.437050940291744 14.148705598650668 4.716770142657486 0 0 0
169 1 22.009545701531888 15.720847010206471 3.1445044709582204 -1 0 0
170 1 1.5724498223303702 17.292849585428453 4.716697805170772 0 0 0
171 1 3.1446732573639755 15.720730668124993 3.144673123659865 0 0 0
172 1 4.717423252320888 17.292123634389824 4.717423235528394 0 0 0
173 1 6.289001189681788 15.720546201402824 3.145143203656076 0 0 0
174 1 7.861191108640641 17.292185711784835 4.717359557323482 0 0 0
175 1 9.433033251699749 15.72033366133027 3.1453550388424047 0 0 0
176 1 11.00477311659881 17.292133739121855 4.717410367987007 0 0 0
177 1 12.576513344532447 15.720332397980322 3.1453567099492004 0 0 0
178 1 14.14835432348771 17.292182794190747 4.7173625061091 0 0 0
179 1 15.720543477686409 15.720543477686409 3.1451468140314303 0 0 0
180 1 17.292120267006265 17.292120267006265 4.717426620731237 0 0 0
181 1 18.864871124724885 15.720729132008506 3.1446749018945876 0 0 0
182 1 20.437093959764983 17.292848557788176 4.716698836400971 0 0 0
183 1 22.00954597066032 18.865067014689895 3.144479577687088 -1 0 0
184 1 1.5722784312252711 20.437267310641413 4.716579306165655 0 0 0
185 1 3.144652322928327 18.864894190030586 3.144652247356395 0 0 0
186 1 4.716697268540503 20.43709512334428 4.716697319725304 0 0 0
187 1 6.288817466921959 18.864872662339735 3.1446733559714786 0 0 0
188 1 7.860842056882017 20.43705192645908 4.716769071792396 0 0 0
189 1 9.432833461581144 18.86482068169446 3.144724899994083 0 0 0
190 1 11.004774314676851 20.43706405979115 4.716799748581779 0 0 0
191 1 12.576714728159853 18.864820014408934 3.1447255777416143 0 0 0
192 1 14.148705598650668 20.437050940291748 4.716770142657486 0 0 0
193 1 15.720729132008506 18.864871124724885 3.144674901894587 0 0 0
194 1 17.29284855778818 20.437093959764983 4.71669883640097 0 0 0
195 1 18.864892942836587 18.864892942836587 3.144653511309444 0 0 0
196 1 20.437266881456868 20.437266881456868 4.716579827138252 0 0 0
197 1 22.009546245419013 22.009546245419013 6.288642634284949 -1 -1 0
198 1 1.57229866070676 1.5722986607067588 7.860739452128883 0 0 0
199 1 3.144503745296689 22.009545685119516 6.28870034262554 0 -1 0
200 1 4.716767865028676 1.5724906104193674 7.860841467488532 0 0 0
201 1 6.288644430398498 22.009544450239304 6.288644584612698 0 -1 0
202 1 7.8606235219966045 1.5725172390627051 7.860623662947952 0 0 0
203 1 9.432800628996159 22.009543637914852 6.28878577150032 0 -1 0
204 1 11.00477398292904 1.5726744023315946 7.860864534542958 0 0 0
205 1 12.576747887087413 22.00954365447789 6.288786327766256 0 -1 0
206 1 14.148923138070261 1.5725192517763351 7.860624888072537 0 0 0
207 1 15.720902296290324 22.00954449383739 6.288645848449906 0 -1 0
208 1 17.292777545666308 1.5724921585030704 7.860842625750061 0 0 0
209 1 18.865041796132413 22.00954571749 6.288701189118608 0 -1 0
210 1 20.43724647121677 1.5722991742871701 7.860739855664141 0 0 0
211 1 22.009545685119516 3.14450374529669 6.28870034262554 -1 0 0
212 1 1.5724906104193683 4.716767865028676 7.860841467488532 0 0 0
213 1 3.144671728870929 3.144671728870929 6.288816096106823 0 0 0
214 1 4.717355625575883 4.717355625575883 7.861188528429847 0 0 0
215 1 6.288998475046774 3.1451399943359903 6.288998538496062 0 0 0
216 1 7.861149418761278 4.718153129885214 7.861148843698852 0 0 0
217 1 9.4330319130376 3.1453515533342538 6.289209402041511 0 0 0
218 1 11.004770150209465 4.719071166825097 7.862349478412121 0 0 0
219 1 12.576514646275532 3.1453532139804983 6.289210678478005 0 0 0
220 1 14.148390246752998 4.718159189848372 7.861152489634893 0 0 0
221 1 15.720546169885965 3.1451436247497164 6.289001284640434 0 0 0
222 1 17.292185500853467 4.717360002480145 7.8611912898094065 0 0 0
223 1 18.86487263321442 3.144673519546377 6.288817638589974 0 0 0
224 1 20.437051858308365 4.716769145756545 7.860842335539056 0 0 0
225 1 22.009544450239304 6.288644430398499 6.288644584612698 -1 0 0
226 1 1.5725172390627045 7.860623521996605 7.860623662947953 0 0 0
227 1 3.14513999433599 6.288998475046774 6.288998538496061 0 0 0
228 1 4.718153129885213 7.861149418761279 7.861148843698852 0 0 0
229 1 6.291199215497952 6.291199215497952 6.291198809382326 0 0 0
230 1 7.867809078350408 7.867809078350409 7.867806791820442 0 0 0
231 1 9.43398458812942 6.290894697916095 6.290893572483649 0 0 0
232 1 11.004762098585406 7.869284371657492 7.869280994192741 0 0 0
233 1 12.57555414157089 6.290897687826362 6.2908965755945445 0 0 0
234 1 14.141714119812969 7.867818355677048 7.867816103089818 0 0 0
235 1 15.718338769239882 6.291205604063356 6.291205201628376 0 0 0
236 1 17.291380547504392 7.861154094222648 7.86115353235494 0 0 0
237 1 18.864400622362115 6.289001479671478 6.289001543403732 0 0 0
238 1 20.43702137679756 7.860624895753963 7.860625038008899 0 0 0
239 1 22.009543637914852 9.432800628996159 6.28878577150032 -1 0 0
240 1 1.5726744023315948 11.00477398292904 7.860864534542957 0 0 0
241 1 3.145351553334254 9.4330319130376 6.289209402041511 0 0 0
242 1 4.719071166825097 11.004770150209465 7.862349478412121 0 0 0
243 1 6.290894697916095 9.43398458812942 6.290893572483649 0 0 0
244 1 7.869284371657492 11.004762098585406 7.869280994192741 0 0 0
245 1 9.431582414558896 9.431582414558894 6.292472201596807 0 0 0
246 1 11.004754544033672 11.004754544033672 7.825437105070412 0 0 0
247 1 12.577944544902431 9.431584822450228 6.292478765354006 0 0 0
248 1 14.14023237493076 11.00476214541565 7.869289703904521 0 0 0
249 1 15.718638128936723 9.433987797492085 6.290900570843948 0 0 0
250 1 17.29045935388039 11.004770179442486 7.862354641797248 0 0 0
251 1 18.86418672358287 9.433033261501693 6.28921286690833 0 0 0
252 1 20.436862883882014 11.004774003263327 7.860866024060273 0 0 0
253 1 22.00954365447789 12.576747887087413 6.288786327766256 -1 0 0
254 1 1.5725192517763351 14.148923138070261 7.860624888072537 0 0 0
255 1 3.1453532139804983 12.576514646275532 6.289210678478004 0 0 0
256 1 4.718159189848372 14.148390246752998 7.861152489634893 0 0 0
257 1 6.290897687826362 12.57555414157089 6.290896575594544 0 0 0
258 1 7.8678183556770485 14.141714119812969 7.867816103089818 0 0 0
259 1 9.431584822450228 12.577944544902431 6.292478765354007 0 0 0
260 1 11.00476214541565 14.14023237493076 7.86928970390452 0 0 0
261 1 12.57794216608526 12.577942166085261 6.29248532920926 0 0 0
262 1 14.14170501658464 14.14170501658464 7.867825343815201 0 0 0
263 1 15.718635149466754 12.575551000471659 6.290903591534679 0 0 0
264 1 17.291374615389334 14.148385697381533 7.861157147121804 0 0 0
265 1 18.864185099066272 12.576513365616266 6.289214130882797 0 0 0
266 1 20.437019460677693 14.148921819179444 7.860626237122731 0 0 0
267 1 22.00954449383739 15.720902296290324 6.288645848449905 -1 0 0
268 1 1.5724921585030698 17.292777545666308 7.8608426257500605 0 0 0
269 1 3.145143624749716 15.720546169885967 6.289001284640434 0 0 0
270 1 4.717360002480145 17.292185500853467 7.861191289809407 0 0 0
271 1 6.291205604063357 15.718338769239882 6.291205201628376 0 0 0
272 1 7.861154094222648 17.291380547504396 7.8611535323549395 0 0 0
273 1 9.433987797492087 15.718638128936723 6.290900570843947 0 0 0
274 1 11.004770179442486 17.29045935388039 7.862354641797247 0 0 0
275 1 12.575551000471659 15.718635149466754 6.290903591534679 0 0 0
276 1 14.148385697381533 17.291374615389334 7.861157147121805 0 0 0
277 1 15.71833250545187 15.71833250545187 6.291211543550751 0 0 0
278 1 17.292181219835697 17.292181219835697 7.861194013726537 0 0 0
279 1 18.864397092352277 15.720543224358542 6.289004250752594 0 0 0
280 1 20.43705043434243 17.292776332409215 7.860843466412211 0 0 0
281 1 22.00954571749 18.865041796132417 6.288701189118608 -1 0 0
282 1 1.572299174287169 20.437246471216774 7.86073985566414 0 0 0
283 1 3.1446735195463766 18.86487263321442 6.288817638589974 0 0 0
284 1 4.716769145756546 20.437051858308365 7.860842335539057 0 0 0
285 1 6.289001479671478 18.864400622362115 6.289001543403732 0 0 0
286 1 7.860624895753963 20.437021376797563 7.8606250380089 0 0 0
287 1 9.433033261501693 18.86418672358287 6.28921286690833 0 0 0
288 1 11.004774003263327 20.436862883882014 7.860866024060273 0 0 0
289 1 12.576513365616268 18.864185099066272 6.289214130882797 0 0 0
290 1 14.148921819179446 20.437019460677693 7.860626237122732 0 0 0
291 1 15.720543224358542 18.864397092352274 6.289004250752594 0 0 0
292 1 17.292776332409215 20.43705043434243 7.860843466412211 0 0 0
293 1 18.864870905386525 18.864870905386525 6.28881915340333 0 0 0
294 1 20.437245998518573 20.437245998518573 7.860740249516178 0 0 0
295 1 22.0095463064101 22.0095463064101 9.432749232164136 -1 -1 0
296 1 1.5723084036390993 1.5723084036390997 11.004774335286466 0 0 0
297 1 3.1445322673644958 22.009545477764327 9.432772410078286 0 -1 0
298 1 4.716798662639202 1.5724780995721115 11.004774559012466 0 0 0
299 1 6.288785767329982 22.009543649517088 9.432800963223839 0 -1 0
300 1 7.860864663303987 1.5726747442962097 11.0047741341143 0 0 0
301 1 9.432603331334052 22.009542034207644 9.43260354024337 0 -1 0
302 1 11.00477367040326 1.571836197988614 11.004773723775417 0 0 0
303 1 12.576944768304386 22.009542069220142 9.432603768479492 0 -1 0
304 1 14.148681505307838 1.5726768834127804 11.004774141586916 0 0 0
305 1 15.720760710539384 22.009543712948062 9.432801580717793 0 -1 0
306 1 17.292746549859896 1.5724797108903876 11.00477456003104 0 0 0
307 1 18.86501327495241 22.00954551848098 9.43277274155378 0 -1 0
308 1 20.437236740289205 1.5723089347383772 11.00477432708885 0 0 0
309 1 22.009545477764327 3.144532267364496 9.432772410078286 -1 0 0
310 1 1.5724780995721108 4.716798662639203 11.004774559012466 0 0 0
311 1 3.144723280479786 3.144723280479786 9.432833078251756 0 0 0
312 1 4.717406739404046 4.717406739404046 11.004772947762186 0 0 0
313 1 6.289209812066179 3.1453519588123315 9.433032058575597 0 0 0
314 1 7.862351066105129 4.719072209530745 11.004769100465904 0 0 0
315 1 9.432384841139546 3.144843058611857 9.432384445262159 0 0 0
316 1 11.004768045290644 4.712634760959547 11.004766332332885 0 0 0
317 1 12.577158981086866 3.1448456527475037 9.432385072534307 0 0 0
318 1 14.14718589620441 4.719078724723582 11.004769127440724 0 0 0
319 1 15.72033334265768 3.1453561199294233 9.433033388067873 0 0 0
320 1 17.292133018065854 4.717411485207598 11.004772996996328 0 0 0
321 1 18.864820490517797 3.1447252850834633 9.432833748018435 0 0 0
322 1 20.43706382735271 4.716800020047736 11.004774569645305 0 0 0
323 1 22.009543649517088 6.288785767329982 9.432800963223839 -1 0 0
324 1 1.5726747442962115 7.860864663303987 11.0047741341143 0 0 0
325 1 3.1453519588123307 6.28920981206618 9.433032058575595 0 0 0
326 1 4.719072209530745 7.86235106610513 11.004769100465904 0 0 0
327 1 6.290895345585636 6.290895345585636 9.433983804839773 0 0 0
328 1 7.869285779682697 7.869285779682697 11.004758540153864 0 0 0
329 1 9.431582746677567 6.292475267772881 9.431579974368091 0 0 0
330 1 11.004754572379754 7.825442901639131 11.00474864260709 0 0 0
331 1 12.577944250374975 6.292481776446571 9.43158238097223 0 0 0
332 1 14.140231070181748 7.869294390544837 11.004758603896443 0 0 0
333 1 15.718637535852213 6.290902284672563 9.433987011175274 0 0 0
334 1 17.290458357415744 7.86235618624183 11.004769138017323 0 0 0
335 1 18.864186349528623 6.289213252550752 9.433033403401682 0 0 0
336 1 20.436862573793455 7.8608661424136645 11.004774162423425 0 0 0
337 1 22.009542034207644 9.432603331334052 9.43260354024337 -1 0 0
338 1 1.5718361979886144 11.004773670403258 11.004773723775417 0 0 0
339 1 3.1448430586118574 9.432384841139546 9.432384445262157 0 0 0
340 1 4.712634760959548 11.004768045290644 11.004766332332885 0 0 0
341 1 6.292475267772882 9.431582746677567 9.431579974368091 0 0 0
342 1 7.825442901639131 11.004754572379754 11.00474864260709 0 0 0
343 1 9.447065014069087 9.447065014069087 9.447058999056852 0 0 0
344 1 20.43727662744249 20.437276627442493 20.437276465280252 0 0 0
345 1 12.56242995291741 9.447078777223522 9.447072816801318 0 0 0
346 1 14.184067473096869 11.00475475042871 11.004748890325166 0 0 0
347 1 15.717045814479047 9.431587076079069 9.431584352009088 0 0 0
348 1 17.296891603827927 11.004768114813405 11.004766418030236 0 0 0
349 1 18.864690447347748 9.432386478092168 9.432386091618891 0 0 0
350 1 20.4376990678337 11.004773697137507 11.004773759140617 0 0 0
351 1 22.009542069220142 12.576944768304386 9.432603768479492 -1 0 0
352 1 1.5726768834127796 14.148681505307838 11.004774141586916 0 0 0
353 1 3.1448456527475033 12.577158981086868 9.432385072534307 0 0 0
354 1 4.719078724723582 14.14718589620441 11.004769127440724 0 0 0
355 1 6.2924817764465715 12.577944250374975 9.43158238097223 0 0 0
356 1 7.869294390544838 14.140231070181748 11.004758603896443 0 0 0
357 1 9.447078777223524 12.56242995291741 9.447072816801318 0 0 0
358 1 11.00475475042871 14.184067473096869 11.004748890325166 0 0 0
359 1 12.562416535684807 12.562416535684807 9.44708654594979 0 0 0
360 1 14.14022275279942 14.14022275279942 11.004758693537637 0 0 0
361 1 15.717039456515446 12.577940088046969 9.431586764975789 0 0 0
362 1 17.290452054228407 14.14718092870475 11.004769168449643 0 0 0
363 1 18.86468796635182 12.577157442047236 9.432386727809211 0 0 0
364 1 20.436860573355148 14.148680096784355 11.004774161000602 0 0 0
365 1 22.009543712948066 15.720760710539384 9.432801580717793 -1 0 0
366 1 1.572479710890387 17.292746549859896 11.00477456003104 0 0 0
367 1 3.145356119929423 15.72033334265768 9.433033388067873 0 0 0
368 1 4.717411485207599 17.292133018065854 11.004772996996328 0 0 0
369 1 6.290902284672563 15.718637535852213 9.433987011175274 0 0 0
370 1 7.862356186241831 17.290458357415744 11.004769138017325 0 0 0
371 1 9.43158707607907 15.717045814479047 9.431584352009088 0 0 0
372 1 11.004768114813405 17.296891603827927 11.004766418030236 0 0 0
373 1 12.577940088046969 15.717039456515446 9.431586764975789 0 0 0
374 1 14.14718092870475 17.290452054228407 11.004769168449641 0 0 0
375 1 15.718630741538666 15.718630741538666 9.433990148031105 0 0 0
376 1 17.29212838614758 17.29212838614758 11.00477302527122 0 0 0
377 1 18.864182330239547 15.720330013703203 9.433034690199124 0 0 0
378 1 20.437062321506566 17.292745256831864 11.004774564811388 0 0 0
379 1 22.00954551848098 18.86501327495241 9.43277274155378 -1 0 0
380 1 1.5723089347383776 20.437236740289205 11.004774327088851 0 0 0
381 1 3.1447252850834637 18.864820490517797 9.432833748018435 0 0 0
382 1 4.716800020047735 20.43706382735271 11.004774569645306 0 0 0
383 1 6.289213252550751 18.864186349528623 9.433033403401682 0 0 0
384 1 7.8608661424136645 20.43686257379346 11.004774162423425 0 0 0
385 1 9.432386478092168 18.864690447347748 9.432386091618891 0 0 0
386 1 11.004773697137507 20.4376990678337 11.004773759140617 0 0 0
387 1 12.577157442047236 18.86468796635182 9.432386727809213 0 0 0
388 1 14.148680096784354 20.436860573355148 11.004774161000602 0 0 0
389 1 15.720330013703203 18.864182330239547 9.433034690199122 0 0 0
390 1 17.292745256831864 20.437062321506566 11.004774564811388 0 0 0
391 1 18.864818578809857 18.864818578809857 9.43283440794039 0 0 0
392 1 20.43723625579319 20.43723625579319 11.004774318327344 0 0 0
393 1 22.00954630828266 22.00954630828266 12.576798938966268 -1 -1 0
394 1 1.5722991556091421 1.5722991556091424 14.148808521441081 0 0 0
395 1 3.1445326444243022 22.00954549789378 12.576776318832065 0 -1 0
396 1 4.716769299044894 1.572491969731588 14.148706374736076 0 0 0
397 1 6.288786499052613 22.009543669547448 12.576748027678887 0 -1 0
398 1 7.860625129691828 1.5725198800188638 14.148922895192262 0 0 0
399 1 9.432603631095951 22.009542078082973 12.576944903869219 0 -1 0
400 1 11.004773990386932 1.5726772163683387 14.148681373054167 0 0 0
401 1 12.576944471280878 22.00954212085859 12.576944678383219 0 -1 0
402 1 14.148921550036667 1.5725218891803547 14.148921689796758 0 0 0
403 1 15.720759985928785 22.00954373457414 12.576747406411481 0 -1 0
404 1 17.292776141741214 1.572493495973488 14.148705217942803 0 0 0
405 1 18.865012916375974 22.00954553070025 12.576775967564531 0 -1 0
406 1 20.437246016052292 1.5722996505136542 14.148808120438174 0 0 0
407 1 22.00954549789378 3.1445326444243022 12.576776318832065 -1 0 0
408 1 1.5724919697315882 4.716769299044895 14.148706374736074 0 0 0
409 1 3.144724190750064 3.1447241907500643 12.576715459973498 0 0 0
410 1 4.717359497989971 4.717359497989971 14.148356372269431 0 0 0
411 1 6.2892114829710435 3.1453541388201685 12.57651436698906 0 0 0
412 1 7.861154198566109 4.71816108601008 14.148388531633536 0 0 0
413 1 9.432385667649447 3.1448464648695524 12.577158381638958 0 0 0
414 1 11.004770177326392 4.719079740000784 14.147184320093775 0 0 0
415 1 12.57715816730927 3.1448490514160903 12.577157767106133 0 0 0
416 1 14.148385501126338 4.718167137497616 14.148384918540158 0 0 0
417 1 15.720331685901396 3.1453583013622324 12.576513085408639 0 0 0
418 1 17.29218167511653 4.717363864015052 14.14835365477519 0 0 0
419 1 18.86481961700381 3.144726171962783 12.576714814368477 0 0 0
420 1 20.437050570131035 4.716770544952049 14.148705522987365 0 0 0
421 1 22.00954366954745 6.288786499052613 12.576748027678887 -1 0 0
422 1 1.572519880018863 7.860625129691828 14.148922895192262 0 0 0
423 1 3.145354138820168 6.2892114829710435 12.57651436698906 0 0 0
424 1 4.71816108601008 7.861154198566109 14.148388531633536 0 0 0
425 1 6.290899277127112 6.290899277127112 12.575552346490957 0 0 0
426 1 7.86782124457927 7.867821244579269 14.141708987240339 0 0 0
427 1 9.431585899834463 6.2924838293990675 12.577940753773479 0 0 0
428 1 11.004762162261333 7.869295726150599 14.140226359549048 0 0 0
429 1 12.577941135677063 6.292490340907555 12.577938385608917 0 0 0
430 1 14.141702195113929 7.8678304193983815 14.141699918842432 0 0 0
431 1 15.718633619695328 6.29090623836876 12.575549228736017 0 0 0
432 1 17.291372757804673 7.861158836322607 14.148383997856158 0 0 0
433 1 18.86418421798223 6.289214911517743 12.57651310610244 0 0 0
434 1 20.437018860008305 7.8606264718723144 14.148921583701462 0 0 0
435 1 22.009542078082973 9.432603631095953 12.576944903869219 -1 0 0
436 1 1.572677216368338 11.004773990386932 14.148681373054165 0 0 0
437 1 3.1448464648695533 9.432385667649447 12.577158381638958 0 0 0
438 1 4.719079740000784 11.004770177326392 14.147184320093775 0 0 0
439 1 6.2924838293990675 9.431585899834463 12.577940753773477 0 0 0
440 1 7.8692957261506 11.004762162261333 14.140226359549048 0 0 0
441 1 9.447083058502795 9.447083058502793 12.562419751937066 0 0 0
442 1 11.004754792355934 11.004754792355934 14.184061799052865 0 0 0