LAMMPS data file via write_data, version 2 Aug 2023, timestep = 19, units = metal

687 atoms
3 atom types

0 22.009546999999998 xlo xhi
0 22.009546999999998 ylo yhi
0 22.009546999999998 zlo zhi

Masses

1 183.84
2 1.008
3 4.0026

Atoms # atomic

1 1 22.00954395965885 22.009543959658846 22.00872650772551 -1 -1 -1
2 1 1.5721922721651942 1.572192272165192 1.5713871527618306 0 0 0
3 1 3.144255233856417 22.009543928671043 22.008649597764574 0 -1 -1
4 1 4.716411234815891 1.5721590251880326 1.5712421412164679 0 0 0
5 1 6.28847427462804 22.009543868887544 22.008506245290622 0 -1 -1
6 1 7.860597732319428 1.572142257174803 1.5711028675954577 0 0 0
7 1 9.43267510512309 22.009543826756467 22.00838977813638 0 -1 -1
8 1 11.004770395831956 1.5721346938231031 1.5710358457670204 0 0 0
9 1 12.576865664513626 22.009543827149862 22.008389743478975 0 -1 -1
10 1 14.148943078372184 1.5721422492054202 1.5711027906667898 0 0 0
11 1 15.72106654000061 22.009543869522343 22.00850616082124 0 -1 -1
12 1 17.293129638906063 1.5721590093383335 1.5712420353436933 0 0 0
13 1 18.86528565511622 22.00954392913827 22.0086495232244 0 -1 -1
14 1 20.4373486442358 1.572192265008422 1.5713871018378753 0 0 0
15 1 22.009543928671047 3.1442552338564176 22.008649597764574 -1 0 -1
16 1 1.5721590251880324 4.716411234815891 1.5712421412164679 0 0 0
17 1 3.1442953688872928 3.1442953688872923 22.008575921744683 0 0 -1
18 1 4.716397825661694 4.716397825661695 1.571206366125826 0 0 0
19 1 6.288484472951271 3.1442594940832365 22.008431397753327 0 0 -1
20 1 7.860603199340381 4.716354370660799 1.5710350741714698 0 0 0
21 1 9.432675826788467 3.144247683319664 22.008317671048907 0 0 -1
22 1 11.004770370738958 4.716357255188603 1.5709215055161434 0 0 0
23 1 12.576864913891354 3.144247673963019 22.008317638255217 0 0 -1
24 1 14.148937557518073 4.716354344978951 1.5710349932170278 0 0 0
25 1 15.721056307623243 3.144259466062734 22.008431308930724 0 0 -1
26 1 17.293142972336025 4.7163977882193855 1.5712062584931705 0 0 0
27 1 18.865245465525415 3.1442953475963353 22.00857584702527 0 0 -1
28 1 20.43738179984867 4.716411218709966 1.5712420907745197 0 0 0
29 1 22.009543868887548 6.288474274628039 22.008506245290622 -1 0 -1
30 1 1.5721422571748043 7.860597732319428 1.5711028675954577 0 0 0
31 1 3.144259494083237 6.288484472951272 22.008431397753327 0 0 -1
32 1 4.7163543706608 7.86060319934038 1.5710350741714698 0 0 0
33 1 6.2882735046466065 6.288273504646606 22.00816402707953 0 0 -1
34 1 7.860042557963585 7.860042557963584 1.5703253296096202 0 0 0
35 1 9.432644416133561 6.28836318581544 22.008036154867472 0 0 -1
36 1 11.004770345434459 7.860367400529331 1.5703325586481776 0 0 0
37 1 12.576896265009266 6.288363175490299 22.008036117383377 0 0 -1
38 1 14.149498135960897 7.860042532520818 1.570325238784417 0 0 0
39 1 15.721267195835676 6.288273471866394 22.00816392941114 0 0 -1
40 1 17.29318634202592 7.86060316608979 1.5710349641459553 0 0 0
41 1 18.865281230817107 6.288484446373453 22.00843132454406 0 0 -1
42 1 20.437398460589513 7.86059771936292 1.571102818252619 0 0 0
43 1 22.00954382675647 9.43267510512309 22.00838977813638 -1 0 -1
44 1 1.5721346938231056 11.004770395831954 1.5710358457670208 0 0 0
45 1 3.1442476833196635 9.432675826788467 22.00831767104891 0 0 -1
46 1 4.716357255188604 11.00477037073896 1.5709215055161443 0 0 0
47 1 6.288363185815442 9.432644416133563 22.008036154867472 0 0 -1
48 1 7.860367400529331 11.004770345434459 1.5703325586481753 0 0 0
49 1 9.432307640495672 9.432307640495674 22.007325390812003 0 0 -1
50 1 11.004770334440984 11.004770334440984 1.5677678831583794 0 0 0
51 1 12.577232992043214 9.432307631662669 22.007325349742334 0 0 -1
52 1 14.149173267964532 11.004770345970718 1.5703324637009333 0 0 0
53 1 15.721177453410037 9.43264439990345 22.008036058519565 0 0 -1
54 1 17.29318341816806 11.00477037142968 1.5709213995193054 0 0 0
55 1 18.865292957585094 9.43267581528485 22.008317603363732 0 0 -1
56 1 20.43740597935452 11.00477039606075 1.5710358006606544 0 0 0
57 1 22.00954382714986 12.576865664513626 22.008389743478975 -1 0 -1
58 1 1.572142249205421 14.148943078372184 1.5711027906667894 0 0 0
59 1 3.144247673963021 12.576864913891354 22.008317638255217 0 0 -1
60 1 4.716354344978951 14.148937557518071 1.5710349932170264 0 0 0
61 1 6.288363175490299 12.576896265009266 22.008036117383377 0 0 -1
62 1 7.860042532520819 14.149498135960895 1.5703252387844189 0 0 0
63 1 9.432307631662669 12.577232992043212 22.007325349742334 0 0 -1
64 1 11.004770345970718 14.149173267964532 1.570332463700934 0 0 0
65 1 12.57723300147611 12.577233001476108 22.007325308692213 0 0 -1
66 1 14.149498162248644 14.149498162248642 1.5703251479466656 0 0 0
67 1 15.721177464316453 12.576896282410452 22.008036021053027 0 0 -1
68 1 17.293186368731767 14.148937591918958 1.571034883158556 0 0 0
69 1 18.865292967367896 12.576864926318153 22.00831757068752 0 0 -1
70 1 20.437398469429898 14.14894309194826 1.5711027416164174 0 0 0
71 1 22.009543869522346 15.72106654000061 22.00850616082124 -1 0 -1
72 1 1.572159009338333 17.293129638906063 1.5712420353436929 0 0 0
73 1 3.144259466062733 15.721056307623241 22.008431308930724 0 0 -1
74 1 4.716397788219386 17.293142972336025 1.5712062584931716 0 0 0
75 1 6.288273471866394 15.721267195835676 22.008163929411136 0 0 -1
76 1 7.860603166089789 17.29318634202592 1.5710349641459558 0 0 0
77 1 9.432644399903452 15.721177453410037 22.00803605851956 0 0 -1
78 1 11.00477037142968 17.29318341816806 1.570921399519304 0 0 0
79 1 12.576896282410452 15.721177464316453 22.008036021053027 0 0 -1
80 1 14.148937591918958 17.293186368731767 1.5710348831585565 0 0 0
81 1 15.7212672298535 15.7212672298535 22.00816383166271 0 0 -1
82 1 17.29314301091789 17.29314301091789 1.5712061508118202 0 0 0
83 1 18.865281260036266 15.721056335148946 22.008431235775635 0 0 -1
84 1 20.437381816842493 17.2931296554791 1.571241984903186 0 0 0
85 1 22.00954392913827 18.86528565511622 22.008649523224403 -1 0 -1
86 1 1.5721922650084224 20.4373486442358 1.5713871018378727 0 0 0
87 1 3.144295347596335 18.865245465525415 22.00857584702527 0 0 -1
88 1 4.7164112187099665 20.43738179984867 1.57124209077452 0 0 0
89 1 6.288484446373454 18.865281230817107 22.00843132454406 0 0 -1
90 1 7.860597719362921 20.437398460589513 1.5711028182526183 0 0 0
91 1 9.43267581528485 18.86529295758509 22.008317603363732 0 0 -1
92 1 11.00477039606075 20.43740597935452 1.5710358006606553 0 0 0
93 1 12.576864926318152 18.865292967367893 22.008317570687524 0 0 -1
94 1 14.148943091948261 20.437398469429898 1.5711027416164174 0 0 0
95 1 15.721056335148946 18.865281260036266 22.008431235775635 0 0 -1
96 1 17.2931296554791 20.437381816842496 1.5712419849031858 0 0 0
97 1 18.865245487731244 18.865245487731244 22.008575772344763 0 0 -1
98 1 20.4373486519362 20.4373486519362 1.5713870508855017 0 0 0
99 1 22.009543961797004 22.009543961797004 3.1435259907624906 -1 -1 0
100 1 1.5722417781686102 1.5722417781686098 4.715661444110483 0 0 0
101 1 3.144368748160942 22.00954394008355 3.14353171523097 0 -1 0
102 1 4.716547501750112 1.5723422292573324 4.71563616944658 0 0 0
103 1 6.288546849279676 22.00954389095037 3.143372271623856 0 -1 0
104 1 7.860687234913168 1.5722875728947756 4.715514450902044 0 0 0
105 1 9.432700570258557 22.00954385084918 3.143274858484722 0 -1 0
106 1 11.0047703932666 1.5722505793501103 4.715467516115899 0 0 0
107 1 12.576840243493798 22.00954385101899 3.143274810715761 0 -1 0
108 1 14.148853574302432 1.5722875649423813 4.715514352513093 0 0 0
109 1 15.720994003281128 22.009543891423462 3.1433721578856204 0 -1 0
110 1 17.292993327880275 1.5723422191838916 4.715636039813327 0 0 0
111 1 18.86517215242283 22.009543940502688 3.1435316161439832 0 -1 0
112 1 20.437299076194655 1.5722417696762088 4.715661386527194 0 0 0
113 1 22.00954394008355 3.1443687481609413 3.14353171523097 -1 0 0
114 1 1.5723422292573321 4.716547501750112 4.71563616944658 0 0 0
115 1 3.1444912234604985 3.1444912234604985 3.143621673570088 0 0 0
116 1 4.717072406225372 4.7170724062253715 4.716116513532983 0 0 0
117 1 6.2885726759087675 3.144371352587809 3.143402679135155 0 0 0
118 1 7.860814097571088 4.716692195887863 4.715657125726983 0 0 0
119 1 9.432728946509076 3.14434757413224 3.1432824511090462 0 0 0
120 1 11.004770380803116 4.716710412773367 4.715542650990433 0 0 0
121 1 12.576811840802764 3.1443475663852025 3.143282399181981 0 0 0
122 1 14.148726679833429 4.716692174892021 4.715657023882596 0 0 0
123 1 15.720968149544161 3.144371328818938 3.143402565395618 0 0 0
124 1 17.292468385306037 4.717072375852066 4.716116389484213 0 0 0
125 1 18.86504963395758 3.1444912059391306 3.143621575221398 0 0 0
126 1 20.437198570490523 4.7165474891475325 4.715636118014995 0 0 0
127 1 22.00954389095037 6.288546849279676 3.143372271623857 -1 0 0
128 1 1.572287572894775 7.8606872349131685 4.715514450902045 0 0 0
129 1 3.1443713525878105 6.288572675908766 3.1434026791351553 0 0 0
130 1 4.716692195887865 7.860814097571088 4.715657125726983 0 0 0
131 1 6.288418731165553 6.288418731165553 3.143331805722783 0 0 0
132 1 7.8599323203217635 7.8599323203217635 4.715156539078519 0 0 0
133 1 9.4327948903489 6.288532313452674 3.143273200398756 0 0 0
134 1 11.004770371890821 7.861461577989018 4.7157001866735895 0 0 0
135 1 12.576745853075408 6.288532296988942 3.1432731406423433 0 0 0
136 1 14.149608447069584 7.859932289623031 4.715156418069597 0 0 0
137 1 15.721122031618409 6.288418693728028 3.143331685125212 0 0 0
138 1 17.292848547250816 7.860814069294554 4.71565699606603 0 0 0
139 1 18.86516942157368 6.28857264543628 3.1434025809255606 0 0 0
140 1 20.43725315587159 7.860687219953781 4.71551439693126 0 0 0
141 1 22.00954385084918 9.432700570258557 3.1432748584847228 -1 0 0
142 1 1.572250579350109 11.004770393266599 4.715467516115899 0 0 0
143 1 3.144347574132241 9.432728946509076 3.1432824511090462 0 0 0
144 1 4.7167104127733674 11.004770380803114 4.715542650990433 0 0 0
145 1 6.288532313452673 9.432794890348898 3.1432732003987573 0 0 0
146 1 7.861461577989018 11.004770371890821 4.715700186673591 0 0 0
147 1 9.431390011307835 9.431390011307833 3.1408025879477925 0 0 0
148 1 11.004770381979304 11.004770381979304 4.700434201303202 0 0 0
149 1 12.578150705427083 9.43139000414786 3.1408025167403255 0 0 0
150 1 14.148079179865324 11.004770372149446 4.715700058557199 0 0 0
151 1 15.721008409026714 9.432794870672838 3.1432730720974487 0 0 0
152 1 17.29283031507487 11.004770381351257 4.7155425126665245 0 0 0
153 1 18.865193130559913 9.432728931216559 3.1432823507552077 0 0 0
154 1 20.437290116655394 11.00477039360882 4.71546745829616 0 0 0
155 1 22.009543851018986 12.576840243493796 3.1432748107157615 -1 0 0
156 1 1.5722875649423809 14.148853574302434 4.715514352513093 0 0 0
157 1 3.1443475663852056 12.576811840802762 3.143282399181979 0 0 0
158 1 4.716692174892021 14.148726679833427 4.715657023882595 0 0 0
159 1 6.288532296988942 12.576745853075407 3.143273140642343 0 0 0
160 1 7.859932289623031 14.149608447069584 4.715156418069597 0 0 0
161 1 9.43139000414786 12.578150705427085 3.1408025167403246 0 0 0
162 1 11.004770372149444 14.148079179865324 4.715700058557198 0 0 0
163 1 12.578150713009993 12.578150713009993 3.140802445492126 0 0 0
164 1 14.1496084785941 14.1496084785941 4.715156297275445 0 0 0
165 1 15.72100842594756 12.57674587396402 3.14327301233693 0 0 0
166 1 17.292848568790724 14.148726709266715 4.71565689432663 0 0 0
167 1 18.865193138815393 12.576811857226183 3.1432822988235727 0 0 0
168 1 20.43725316466446 14.14885358983364 4.7155142985365925 0 0 0
169 1 22.009543891423466 15.720994003281126 3.14337215788562 -1 0 0
170 1 1.5723422191838934 17.29299332788027 4.715636039813326 0 0 0
171 1 3.144371328818938 15.720968149544161 3.1434025653956184 0 0 0
172 1 4.717072375852067 17.292468385306037 4.7161163894842115 0 0 0
173 1 6.288418693728028 15.721122031618409 3.1433316851252124 0 0 0
174 1 7.860814069294553 17.292848547250816 4.715656996066031 0 0 0
175 1 9.432794870672838 15.721008409026714 3.1432730720974495 0 0 0
176 1 11.004770381351257 17.29283031507487 4.7155425126665245 0 0 0
177 1 12.57674587396402 15.721008425947561 3.14327301233693 0 0 0
178 1 14.148726709266715 17.292848568790724 4.71565689432663 0 0 0
179 1 15.721122070081352 15.721122070081352 3.1433315646740945 0 0 0
180 1 17.292468416776646 17.292468416776643 4.716116265529591 0 0 0
181 1 18.865169446526544 15.720968180980476 3.1434024672350143 0 0 0
182 1 20.437198581541534 17.292993341006355 4.715635988509791 0 0 0
183 1 22.009543940502684 18.86517215242283 3.1435316161439832 -1 0 0
184 1 1.5722417696762094 20.437299076194655 4.715661386527196 0 0 0
185 1 3.1444912059391315 18.86504963395758 3.143621575221398 0 0 0
186 1 4.7165474891475325 20.437198570490523 4.715636118014995 0 0 0
187 1 6.28857264543628 18.86516942157368 3.143402580925561 0 0 0
188 1 7.860687219953782 20.43725315587159 4.715514396931262 0 0 0
189 1 9.43272893121656 18.865193130559913 3.1432823507552077 0 0 0
190 1 11.004770393608823 20.437290116655394 4.715467458296161 0 0 0
191 1 12.576811857226183 18.865193138815393 3.143282298823572 0 0 0
192 1 14.148853589833642 20.43725316466446 4.7155142985365925 0 0 0
193 1 15.720968180980476 18.865169446526544 3.143402467235014 0 0 0
194 1 17.292993341006355 20.437198581541534 4.715635988509791 0 0 0
195 1 18.865049652399907 18.865049652399907 3.143621476977044 0 0 0
196 1 20.437299085211208 20.437299085211208 4.715661328969034 0 0 0
197 1 22.009543891347658 22.009543891347658 6.287689634410213 -1 -1 0
198 1 1.5722819377969157 1.5722819377969166 7.859724250872567 0 0 0
199 1 3.144471183693102 22.0095438799466 6.2877413967933204 0 -1 0
200 1 4.71672182563388 1.5724800232290337 7.859829859801541 0 0 0
201 1 6.28852470106105 22.009543856785452 6.287555142452839 0 -1 0
202 1 7.8604934053829165 1.5723453443207258 7.859489704199838 0 0 0
203 1 9.432713533205968 22.00954383899812 6.2875761516880875 0 -1 0
204 1 11.004770354512543 1.5723487694146898 7.859673979123469 0 0 0
205 1 12.576827229907316 22.00954383914682 6.287576099223627 0 -1 0
206 1 14.14904730113263 1.5723453326561503 7.859489612106139 0 0 0
207 1 15.72101606885162 22.009543857281503 6.2875550168302885 0 -1 0
208 1 17.292818875544036 1.572480010325937 7.859829749219039 0 0 0
209 1 18.865069598885572 22.009543880399704 6.28774129566516 0 -1 0
210 1 20.437258759066772 1.5722819288099223 7.8597241956272175 0 0 0
211 1 22.009543879946605 3.1444711836931014 6.287741396793321 -1 0 0
212 1 1.5724800232290337 4.71672182563388 7.859829859801541 0 0 0
213 1 3.144623907393645 3.144623907393645 6.287837761485767 0 0 0
214 1 4.71737822369975 4.71737822369975 7.860237420979063 0 0 0
215 1 6.2887742402535265 3.144851301274413 6.287771175046682 0 0 0
216 1 7.860841571837512 4.717525851506151 7.859698029393137 0 0 0
217 1 9.432864390083166 3.144779287846166 6.287752962864999 0 0 0
218 1 11.004770359228322 4.71765784113408 7.86054550524899 0 0 0
219 1 12.576676361975478 3.1447792807954342 6.2877529086868496 0 0 0
220 1 14.148699137750452 4.71752582925993 7.859697933836257 0 0 0
221 1 15.72076652324929 3.1448512813844127 6.287771050399814 0 0 0
222 1 17.29216247270433 4.7173781938219275 7.860237318232999 0 0 0
223 1 18.864916858115336 3.1446238905276815 6.287837665126777 0 0 0
224 1 20.437060652388116 4.716721810332768 7.859829811407561 0 0 0
225 1 22.009543856785452 6.288524701061049 6.287555142452838 -1 0 0
226 1 1.5723453443207285 7.8604934053829165 7.859489704199837 0 0 0
227 1 3.1448513012744126 6.2887742402535265 6.287771175046682 0 0 0
228 1 4.71752585150615 7.860841571837512 7.8596980293931376 0 0 0
229 1 6.290476569198248 6.290476569198248 6.289374531866847 0 0 0
230 1 7.866036068202957 7.8660360682029555 7.864684407038743 0 0 0
231 1 9.43349715523624 6.289403827990225 6.288397561866336 0 0 0
232 1 11.004770380174973 7.865890529454735 7.865228195335923 0 0 0
233 1 12.576043599215938 6.289403806093127 6.288397504180426 0 0 0
234 1 14.143504686142734 7.866036025739635 7.864684289314684 0 0 0
235 1 15.71906417885557 6.29047653661419 6.289374404794619 0 0 0
236 1 17.29201484597347 7.860841546721082 7.8596979198692685 0 0 0
237 1 18.86468943363893 6.28877421131175 6.287771084319081 0 0 0
238 1 20.43719531175146 7.860493391020594 7.859489657868388 0 0 0
239 1 22.009543838998123 9.432713533205968 6.287576151688087 -1 0 0
240 1 1.57234876941469 11.00477035451254 7.859673979123469 0 0 0
241 1 3.144779287846165 9.432864390083166 6.287752962864999 0 0 0
242 1 4.717657841134081 11.004770359228322 7.860545505248991 0 0 0
243 1 6.289403827990226 9.43349715523624 6.288397561866336 0 0 0
244 1 7.865890529454735 11.004770380174973 7.8652281953359235 0 0 0
245 1 9.428895919037306 9.428895919037306 6.286060058648719 0 0 0
246 1 11.004770405004495 11.004770405004495 7.786572172501317 0 0 0
247 1 12.580644875057649 9.428895906546726 6.286059953224558 0 0 0
248 1 14.143650224164583 11.004770380324159 7.865228067297042 0 0 0
249 1 15.7201369241538 9.43349713992132 6.288397421077141 0 0 0
250 1 17.291882863964034 11.004770359576678 7.860545388114165 0 0 0
251 1 18.864761421602342 9.432864376250556 6.287752865074121 0 0 0
252 1 20.43719187715501 11.004770354834626 7.859673929430959 0 0 0
253 1 22.00954383914682 12.576827229907316 6.287576099223628 -1 0 0
254 1 1.5723453326561505 14.14904730113263 7.859489612106139 0 0 0
255 1 3.1447792807954347 12.576676361975478 6.287752908686851 0 0 0
256 1 4.717525829259929 14.14869913775045 7.859697933836257 0 0 0
257 1 6.289403806093127 12.576043599215936 6.288397504180426 0 0 0
258 1 7.866036025739636 14.143504686142734 7.864684289314683 0 0 0
259 1 9.428895906546726 12.58064487505765 6.286059953224559 0 0 0
260 1 11.004770380324159 14.143650224164583 7.865228067297042 0 0 0
261 1 12.580644887765697 12.580644887765695 6.286059847842708 0 0 0
262 1 14.143504729236932 14.143504729236932 7.864684171384372 0 0 0
263 1 15.720136946330234 12.57604361536315 6.288397363479989 0 0 0
264 1 17.292014868656395 14.148699163590287 7.8596978241938675 0 0 0
265 1 18.86476142896043 12.576676376622574 6.287752811115175 0 0 0
266 1 20.437195323936525 14.149047315863518 7.859489565965463 0 0 0
267 1 22.009543857281507 15.721016068851618 6.2875550168302885 -1 0 0
268 1 1.5724800103259373 17.292818875544032 7.859829749219041 0 0 0
269 1 3.144851281384411 15.720766523249289 6.287771050399814 0 0 0
270 1 4.7173781938219275 17.29216247270433 7.860237318233 0 0 0
271 1 6.290476536614191 15.719064178855572 6.289374404794619 0 0 0
272 1 7.860841546721082 17.29201484597347 7.859697919869268 0 0 0
273 1 9.43349713992132 15.7201369241538 6.288397421077142 0 0 0
274 1 11.004770359576678 17.29188286396403 7.860545388114165 0 0 0
275 1 12.57604361536315 15.720136946330236 6.288397363479989 0 0 0
276 1 14.148699163590287 17.292014868656395 7.859697824193867 0 0 0
277 1 15.719064212083051 15.719064212083051 6.2893742776142965 0 0 0
278 1 17.292162503400633 17.29216250340063 7.860237215488587 0 0 0
279 1 18.864689454376737 15.720766553149666 6.287770959735106 0 0 0
280 1 20.437060666104475 17.292818891218417 7.859829700958852 0 0 0
281 1 22.0095438803997 18.865069598885576 6.28774129566516 -1 0 0
282 1 1.572281928809923 20.437258759066772 7.859724195627216 0 0 0
283 1 3.1446238905276815 18.864916858115336 6.287837665126778 0 0 0
284 1 4.716721810332769 20.437060652388112 7.859829811407562 0 0 0
285 1 6.28877421131175 18.86468943363893 6.287771084319081 0 0 0
286 1 7.860493391020594 20.43719531175146 7.859489657868389 0 0 0
287 1 9.432864376250556 18.864761421602342 6.287752865074121 0 0 0
288 1 11.004770354834625 20.43719187715501 7.859673929430959 0 0 0
289 1 12.576676376622576 18.86476142896043 6.287752811115175 0 0 0
290 1 14.149047315863518 20.437195323936525 7.859489565965463 0 0 0
291 1 15.720766553149664 18.864689454376737 6.287770959735106 0 0 0
292 1 17.292818891218417 20.437060666104475 7.859829700958852 0 0 0
293 1 18.86491687565247 18.864916875652465 6.2878375688558945 0 0 0
294 1 20.43725876840537 20.43725876840537 7.859724140484222 0 0 0
295 1 22.00954381441359 22.00954381441359 9.431663224503893 -1 -1 0
296 1 1.572268454537881 1.572268454537881 11.003656547045326 0 0 0
297 1 3.1444896468364156 22.0095438104564 9.431706623543395 0 -1 0
298 1 4.716708917438941 1.5724620884615208 11.003687613547717 0 0 0
299 1 6.2886887113480645 22.009543799043108 9.431750415293914 0 -1 0
300 1 7.860665286475248 1.5725832128165 11.003759553113479 0 0 0
301 1 9.432495339614448 22.009543793894316 9.431555304514186 0 -1 0
302 1 11.00477029410197 1.571520231757933 11.003810285348013 0 0 0
303 1 12.577045305565674 22.009543794012153 9.43155525644901 0 -1 0
304 1 14.148875299530966 1.5725832032122633 11.003759487503999 0 0 0
305 1 15.720851923506777 22.00954379930211 9.431750317159205 0 -1 0
306 1 17.29283166129029 1.5724620754009362 11.003687532501635 0 0 0
307 1 18.86505097821492 22.009543810742173 9.431706547249474 0 -1 0
308 1 20.437272121799523 1.5722684467615797 11.003656514655459 0 0 0
309 1 22.009543810456396 3.1444896468364156 9.431706623543395 -1 0 0
310 1 1.5724620884615186 4.716708917438942 11.003687613547719 0 0 0
311 1 3.144686290781066 3.1446862907810647 9.431773899780787 0 0 0
312 1 4.717362799617732 4.717362799617731 11.003708650173998 0 0 0
313 1 6.289158247563252 3.1453713006659236 9.431991637490059 0 0 0
314 1 7.862090926105455 4.719092106509061 11.00383860794289 0 0 0
315 1 9.43228991445805 3.144222962696885 9.431358481530278 0 0 0
316 1 11.00477030558238 4.7114412381949355 11.00442103940368 0 0 0
317 1 12.57725073872822 3.144222950576091 9.431358430947911 0 0 0
318 1 14.147449681691038 4.719092075857152 11.003838542150817 0 0 0
319 1 15.720382396115916 3.1453712749575464 9.43199154256399 0 0 0
320 1 17.29217778386806 4.717362760791734 11.003708573871533 0 0 0
321 1 18.864854334411387 3.1446862655486574 9.431773825693988 0 0 0
322 1 20.43707847037735 4.716708899401812 11.003687585488349 0 0 0
323 1 22.009543799043108 6.2886887113480645 9.431750415293916 -1 0 0
324 1 1.5725832128164994 7.860665286475247 11.003759553113479 0 0 0
325 1 3.1453713006659236 6.289158247563254 9.431991637490059 0 0 0
326 1 4.719092106509061 7.862090926105456 11.003838607942892 0 0 0
327 1 6.291314397911771 6.291314397911771 9.43331099793608 0 0 0
328 1 7.873049011170291 7.873049011170291 11.002654298550016 0 0 0
329 1 9.432011416159517 6.289589765840182 9.430665681819477 0 0 0
330 1 11.004770335108438 7.823730781810282 11.009148136578311 0 0 0
331 1 12.577529275577307 6.2895897367521005 9.430665634771518 0 0 0
332 1 14.136491616354435 7.87304900661302 11.002654236279358 0 0 0
333 1 15.718226257877058 6.29131437013102 9.433310899954398 0 0 0
334 1 17.290448477194992 7.862090901923686 11.003838525931089 0 0 0
335 1 18.864169316002762 6.2891582171429175 9.431991568103467 0 0 0
336 1 20.43695732849877 7.860665272757074 11.003759524843908 0 0 0
337 1 22.009543793894316 9.432495339614448 9.431555304514188 -1 0 0
338 1 1.571520231757931 11.00477029410197 11.003810285348015 0 0 0
339 1 3.1442229626968854 9.43228991445805 9.431358481530278 0 0 0
340 1 4.711441238194936 11.004770305582378 11.004421039403677 0 0 0
341 1 6.289589765840182 9.432011416159517 9.430665681819477 0 0 0
342 1 7.823730781810282 11.004770335108438 11.00914813657831 0 0 0
343 1 9.44772235695936 9.44772235695936 9.448544028622452 0 0 0
344 1 20.437376971906378 20.437376971906378 20.436425920803003 0 0 0
345 1 12.56181844410366 9.44772228963321 9.448543948414738 0 0 0
346 1 14.185809908368675 11.004770335844718 11.009148082477706 0 0 0
347 1 15.719950930444902 9.432011401655927 9.430665571130122 0 0 0
348 1 17.298099354105457 11.004770305662543 11.004420951935371 0 0 0
349 1 18.865317653693698 9.432289904480703 9.431358403102506 0 0 0
350 1 20.43802030609832 11.004770294226123 11.003810253820086 0 0 0
351 1 22.009543794012153 12.577045305565674 9.43155525644901 -1 0 0
352 1 1.572583203212263 14.148875299530966 11.003759487503999 0 0 0
353 1 3.1442229505760917 12.57725073872822 9.431358430947911 0 0 0
354 1 4.719092075857152 14.147449681691036 11.003838542150817 0 0 0
355 1 6.2895897367521005 12.577529275577305 9.430665634771518 0 0 0
356 1 7.873049006613021 14.136491616354435 11.002654236279358 0 0 0
357 1 9.447722289633212 12.56181844410366 9.44854394841474 0 0 0
358 1 11.004770335844718 14.185809908368675 11.009148082477706 0 0 0
359 1 12.561818512189813 12.561818512189813 9.448543868647043 0 0 0
360 1 14.136491621432734 14.136491621432732 11.002654174294223 0 0 0
361 1 15.719950959861402 12.577529290540092 9.430665524094941 0 0 0
362 1 17.29044850842566 14.147449706646771 11.003838460049428 0 0 0
363 1 18.865317666057745 12.577250749315771 9.43135835238073 0 0 0
364 1 20.436957338519772 14.148875313869393 11.003759459229968 0 0 0
365 1 22.00954379930211 15.720851923506777 9.431750317159205 -1 0 0
366 1 1.5724620754009357 17.29283166129029 11.003687532501633 0 0 0
367 1 3.145371274957545 15.720382396115914 9.431991542563988 0 0 0
368 1 4.717362760791734 17.29217778386806 11.003708573871533 0 0 0
369 1 6.291314370131021 15.718226257877058 9.433310899954396 0 0 0
370 1 7.862090901923686 17.290448477194992 11.00383852593109 0 0 0
371 1 9.432011401655927 15.719950930444902 9.430665571130122 0 0 0
372 1 11.004770305662545 17.298099354105457 11.00442095193537 0 0 0
373 1 12.57752929054009 15.719950959861402 9.430665524094941 0 0 0
374 1 14.14744970664677 17.290448508425662 11.003838460049428 0 0 0
375 1 15.71822628641757 15.71822628641757 9.433310801669327 0 0 0
376 1 17.29217782318906 17.29217782318906 11.003708497498533 0 0 0
377 1 18.864169342317076 15.720382427132677 9.43199147335236 0 0 0
378 1 20.437078484105555 17.29283167945532 11.003687504454806 0 0 0
379 1 22.009543810742173 18.86505097821492 9.431706547249476 -1 0 0
380 1 1.572268446761578 20.437272121799523 11.003656514655459 0 0 0
381 1 3.1446862655486583 18.864854334411387 9.431773825693988 0 0 0
382 1 4.716708899401813 20.437078470377347 11.003687585488349 0 0 0
383 1 6.289158217142917 18.86416931600276 9.431991568103467 0 0 0
384 1 7.860665272757075 20.43695732849877 11.003759524843908 0 0 0
385 1 9.432289904480704 18.865317653693698 9.431358403102506 0 0 0
386 1 11.004770294226123 20.438020306098316 11.003810253820086 0 0 0
387 1 12.577250749315771 18.865317666057745 9.43135835238073 0 0 0
388 1 14.148875313869393 20.43695733851977 11.003759459229968 0 0 0
389 1 15.720382427132677 18.86416934231708 9.43199147335236 0 0 0
390 1 17.29283167945532 20.437078484105555 11.003687504454804 0 0 0
391 1 18.864854360152524 18.864854360152524 9.431773751559065 0 0 0
392 1 20.437272129952284 20.437272129952284 11.00365648225258 0 0 0
393 1 22.009543776282143 22.00954377628214 12.575659969990609 -1 -1 0
394 1 1.5722244845687035 1.5722244845687015 14.14770272692741 0 0 0
395 1 3.1444355999529674 22.00954377093406 12.575661002440802 0 -1 0
396 1 4.716581475638175 1.5724157369257594 14.147619707609254 0 0 0
397 1 6.288600872070476 22.009543753549625 12.575691013800366 0 -1 0
398 1 7.860360011279364 1.5722302714101537 14.148017942159246 0 0 0
399 1 9.432459251968666 22.009543740764535 12.575964803668183 0 -1 0
400 1 11.00477027006552 1.572368561990233 14.147813270645429 0 0 0
401 1 12.57708129729883 22.009543740922624 12.575964775269924 0 -1 0
402 1 14.149180528956448 1.5722302607778111 14.148017895876524 0 0 0
403 1 15.720939675584752 22.009543753841324 12.575690950163734 0 -1 0
404 1 17.292959077308105 1.5724157175412494 14.14761965730498 0 0 0
405 1 18.86510495549525 22.009543771321848 12.575660949730464 0 -1 0
406 1 20.43731607995638 1.5722244745155594 14.147702703311717 0 0 0
407 1 22.00954377093406 3.1444355999529683 12.5756610024408 -1 0 0
408 1 1.5724157369257594 4.716581475638175 14.147619707609255 0 0 0
409 1 3.1446079254153654 3.144607925415365 12.57561237970928 0 0 0
410 1 4.717232270101303 4.717232270101302 14.147171031913116 0 0 0
411 1 6.28902477008513 3.1452878306068097 12.575443884485379 0 0 0
412 1 7.8604295980596115 4.7169716032014755 14.148097478546557 0 0 0
413 1 9.432140281440676 3.1441767931738216 12.576350935255391 0 0 0
414 1 11.004770274202285 4.717828008141852 14.147085645385724 0 0 0
415 1 12.577400272951813 3.144176780529333 12.576350903716687 0 0 0
416 1 14.149110951524845 4.716971566590884 14.148097436113018 0 0 0
417 1 15.720515783453036 3.145287800171154 12.575443819765999 0 0 0
418 1 17.29230826209172 4.71723223312009 14.147170978795526 0 0 0
419 1 18.864932624620685 3.1446079000964033 12.575612330098625 0 0 0
420 1 20.43712479025942 4.716581459981045 14.147619685864337 0 0 0
421 1 22.00954375354962 6.288600872070475 12.575691013800366 -1 0 0
422 1 1.5722302714101546 7.860360011279365 14.148017942159246 0 0 0
423 1 3.1452878306068093 6.289024770085131 12.57544388448538 0 0 0
424 1 4.716971603201475 7.8604295980596115 14.148097478546555 0 0 0
425 1 6.291408758966177 6.291408758966178 12.5739829647705 0 0 0
426 1 7.864624868517714 7.864624868517714 14.144255818324956 0 0 0
427 1 9.430683518014893 6.289969330364001 12.578483276990546 0 0 0
428 1 11.004770286575006 7.866522259219317 14.142782271738113 0 0 0
429 1 12.578857075398952 6.289969314549584 12.578483249597564 0 0 0
430 1 14.14491569042939 7.864624840127167 14.14425577261331 0 0 0
431 1 15.71813180041111 6.291408724769181 12.57398289796511 0 0 0
432 1 17.292568913579636 7.860429564691889 14.148097427500261 0 0 0
433 1 18.864252694250123 6.289024738603433 12.575443838655547 0 0 0
434 1 20.43731020818508 7.860360001399938 14.148017920313634 0 0 0
435 1 22.009543740764535 9.432459251968666 12.575964803668183 -1 0 0
436 1 1.5723685619902332 11.00477027006552 14.147813270645429 0 0 0
437 1 3.1441767931738216 9.432140281440674 12.576350935255393 0 0 0
438 1 4.717828008141853 11.004770274202285 14.147085645385724 0 0 0
439 1 6.289969330364 9.430683518014892 12.578483276990546 0 0 0
440 1 7.866522259219317 11.004770286575006 14.142782271738115 0 0 0
441 1 9.436657355258944 9.436657355258944 12.57362927947835 0 0 0
442 1 11.00477028842542 11.00477028842542 14.17744069869717 0 0 0