LAMMPS data file via write_data, version 2 Aug 2023, timestep = 22, units = metal

689 atoms
3 atom types

0 22.009546999999998 xlo xhi
0 22.009546999999998 ylo yhi
0 22.009546999999998 zlo zhi

Masses

1 183.84
2 1.008
3 4.0026

Atoms # atomic

1 1 22.008573343138668 22.009097941748863 22.00726181433631 -1 -1 -1
2 1 1.5707712536114318 1.5714179377679625 1.5695363810019236 0 0 0
3 1 3.1425717772203217 22.009221332459482 22.00726162053836 0 -1 -1
4 1 4.714485515978142 1.5714169988991782 1.5694228751106836 0 0 0
5 1 6.28672267529634 22.009380733744333 22.007261119986413 0 -1 -1
6 1 7.858942557130744 1.571466339326193 1.56936206752144 0 0 0
7 1 9.431318294128012 22.0094675443242 22.00726092620793 0 -1 -1
8 1 11.003722633922548 1.5714560433536844 1.569350707046108 0 0 0
9 1 12.576055812588853 22.009395681390977 22.007260733464246 0 -1 -1
10 1 14.148459728958882 1.571342495384317 1.5693719122604703 0 0 0
11 1 15.72062719030388 22.009233354517413 22.007260916313864 0 -1 -1
12 1 17.292997380693244 1.5712314364476276 1.5694054033360292 0 0 0
13 1 18.864895472132517 22.009099874344816 22.007261539364034 0 -1 -1
14 1 20.4369656827596 1.5712996535939683 1.5695086175119441 0 0 0
15 1 22.008715698399705 3.1434389031099834 22.007261450667823 -1 0 -1
16 1 1.5707809398073982 4.715578605269461 1.5694651293809532 0 0 0
17 1 3.142464941740432 3.1433453351484517 22.007261501979283 0 0 -1
18 1 4.7140756650706965 4.71509902476189 1.5691295154873195 0 0 0
19 1 6.286529210020178 3.1431697974598287 22.00726112786453 0 0 -1
20 1 7.858547376440439 4.71479180779228 1.568930138263581 0 0 0
21 1 9.431276643474455 3.143143265587391 22.00726074325336 0 0 -1
22 1 11.00370513378222 4.714782394822689 1.5689598937420306 0 0 0
23 1 12.576177716447182 3.143079855193444 22.007260849056536 0 0 -1
24 1 14.148794155507474 4.714710980801397 1.5690035511608824 0 0 0
25 1 15.720928631730956 3.1430112591305255 22.007261018776177 0 0 -1
26 1 17.293685094245898 4.714714969755924 1.5689817534771968 0 0 0
27 1 18.865289989916892 3.143087447265796 22.007261357970684 0 0 -1
28 1 20.437140390838483 4.715399435163893 1.56939816343184 0 0 0
29 1 22.008700780212827 6.287833551922818 22.00726078297062 -1 0 -1
30 1 1.5707503730119907 7.8600768327612895 1.56948607356269 0 0 0
31 1 3.142462239392717 6.2877886056586645 22.007261033310467 0 0 -1
32 1 4.714136843724734 7.8599747829136835 1.5692423258276742 0 0 0
33 1 6.285994124779642 6.287143267900494 22.00726096769679 0 0 -1
34 1 7.8578571590236175 7.859164996753649 1.5681675235074566 0 0 0
35 1 9.430883353911758 6.286861203228558 22.007260853461094 0 0 -1
36 1 11.003395446620265 7.859007468832931 1.5678063813653094 0 0 0
37 1 12.576318444318316 6.286826372172717 22.007261005438362 0 0 -1
38 1 14.149559355648808 7.8587920431039615 1.5678170563010958 0 0 0
39 1 15.721631093787268 6.286779334400113 22.007260910213507 0 0 -1
40 1 17.293560339024932 7.859690820856267 1.5690631708119362 0 0 0
41 1 18.865346077101425 6.287538160145912 22.007260961767155 0 0 -1
42 1 20.43702321436838 7.859979706424011 1.5694327402027362 0 0 0
43 1 22.008573685688738 9.432296007936507 22.0072606398165 -1 0 -1
44 1 1.57059677542505 11.004568416695594 1.569506166905979 0 0 0
45 1 3.1423553483382767 9.432346211880297 22.007260824342005 0 0 -1
46 1 4.713993495308731 11.004711541208264 1.569256580845967 0 0 0
47 1 6.285982669713538 9.432304894590407 22.00726114003595 0 0 -1
48 1 7.857916740416045 11.004920249949848 1.5684971162030852 0 0 0
49 1 9.430441550508874 9.431932404840074 22.00726105173441 0 0 -1
50 1 11.003321886637005 11.005119316812362 1.566327262369202 0 0 0
51 1 12.576585832013436 9.431822040325098 22.007261169727343 0 0 -1
52 1 14.149225488891592 11.005006267581225 1.5680518969062764 0 0 0
53 1 15.7214122366576 9.432124439310105 22.007261033692195 0 0 -1
54 1 17.293382160552174 11.004626926824454 1.5691044880366156 0 0 0
55 1 18.865217085509315 9.43222025326117 22.00726087708177 0 0 -1
56 1 20.436853357806548 11.004532093317733 1.5694730634332843 0 0 0
57 1 22.008426419228762 12.576775733296294 22.007261147803337 -1 0 -1
58 1 1.570464056027372 14.149035867216543 1.5695206855200068 0 0 0
59 1 3.1422105099628737 12.576903101419997 22.007261172536005 0 0 -1
60 1 4.713864683011836 14.149428320959249 1.569229928296595 0 0 0
61 1 6.285842835408799 12.577285950526266 22.007261012794128 0 0 -1
62 1 7.857637153156313 14.150622525141484 1.5681165860479662 0 0 0
63 1 9.43031255560367 12.57800072363911 22.007260867165698 0 0 -1
64 1 11.003408312056372 14.150549454565022 1.5682547241596116 0 0 0
65 1 12.576465194516107 12.577941573842937 22.00726099283849 0 0 -1
66 1 14.149161070526366 14.150514983712592 1.568161256479386 0 0 0
67 1 15.72136603770694 12.577375400009442 22.007260833499465 0 0 -1
68 1 17.293342052197985 14.149507399881497 1.5691469997558796 0 0 0
69 1 18.865085119706265 12.57688075273079 22.007260844378603 0 0 -1
70 1 20.436744699331506 14.149040409328313 1.5695040171720769 0 0 0
71 1 22.00836386898528 15.7211422008589 22.007261327722805 -1 0 -1
72 1 1.570429082332391 17.293393376520775 1.569518815898083 0 0 0
73 1 3.1421549375500333 15.721404068997082 22.007261574176326 0 0 -1
74 1 4.713816309530676 17.294185729435682 1.569125345850448 0 0 0
75 1 6.285765827436579 15.722358285619718 22.00726133250004 0 0 -1
76 1 7.858521335760473 17.294543156196987 1.5690444178575393 0 0 0
77 1 9.430865524894202 15.722590087772998 22.007261360268576 0 0 -1
78 1 11.003510232211548 17.294636174633624 1.5689960558475333 0 0 0
79 1 12.576084873062353 15.722539874229868 22.007261341235235 0 0 -1
80 1 14.148517623263315 17.29442250825702 1.5690660541579817 0 0 0
81 1 15.721230994369353 15.722248838467838 22.007261350504876 0 0 -1
82 1 17.293267562615128 17.294067772898707 1.5691414727444553 0 0 0
83 1 18.865032595382715 15.721420949320775 22.00726128344539 0 0 -1
84 1 20.43671637830329 17.29336667986378 1.5695437882190821 0 0 0
85 1 22.008406991763927 18.865318904080983 22.007261646042917 -1 0 -1
86 1 1.5706069876322561 20.43734686370943 1.5695822767980305 0 0 0
87 1 3.1422464578054363 18.865673716564043 22.007261688193772 0 0 -1
88 1 4.714422180369897 20.437649662116346 1.5694465401943027 0 0 0
89 1 6.286462193817996 18.866057931293074 22.007261515993005 0 0 -1
90 1 7.858877694402071 20.43788069959483 1.5693697280068895 0 0 0
91 1 9.431158639206243 18.866257931591605 22.007261242821656 0 0 -1
92 1 11.003634063671749 20.437910743150244 1.569346700347932 0 0 0
93 1 12.576016174639628 18.866182386082826 22.00726071128592 0 0 -1
94 1 14.148368919341847 20.437747466830267 1.5693838415644334 0 0 0
95 1 15.720712526819826 18.865925052977804 22.00726137644438 0 0 -1
96 1 17.292848433633196 20.43752546713741 1.5694456522457634 0 0 0
97 1 18.864968231980704 18.8656151473146 22.007261639836557 0 0 -1
98 1 20.43676295461765 20.43730890437558 1.5695639909955141 0 0 0
99 1 22.00854013335703 22.00903622109988 3.141617314808455 -1 -1 0
100 1 1.5707239672324125 1.5712999586739957 4.713598221020094 0 0 0
101 1 3.1423905800194105 22.009210803631312 3.1414222721050806 0 -1 0
102 1 4.714116062549867 1.5711616052937487 4.71309532292144 0 0 0
103 1 6.286555197944501 22.00938013966389 3.141210472703601 0 -1 0
104 1 7.858706520297671 1.5711631571930658 4.712880057496891 0 0 0
105 1 9.431254825632745 22.009474489391355 3.1411211973906137 0 -1 0
106 1 11.003689131937472 1.5712032430583833 4.712860772824074 0 0 0
107 1 12.576071228736575 22.009402924789416 3.141140593315665 0 -1 0
108 1 14.148608695363604 1.5710493179573395 4.712935436434697 0 0 0
109 1 15.720746917201197 22.009207137078484 3.1412311468946665 0 -1 0
110 1 17.29337722267056 1.5708476303132342 4.713026962564098 0 0 0
111 1 18.865051813672924 22.009056123630074 3.1413699124825913 0 -1 0
112 1 20.4370343661422 1.5710925830062596 4.713505851179507 0 0 0
113 1 22.00874540965589 3.143188851678646 3.141320559404355 -1 0 0
114 1 1.570617401214709 4.715055891420439 4.713075588663085 0 0 0
115 1 3.142317178361941 3.1431380183431417 3.1411615076515207 0 0 0
116 1 4.713289035775246 4.714250211360829 4.712147938848849 0 0 0
117 1 6.286296514727408 3.1428640783182193 3.140810991869221 0 0 0
118 1 7.85791986631476 4.713705893212321 4.711497390248913 0 0 0
119 1 9.431229121324264 3.1428722827095052 3.1407822650311017 0 0 0
120 1 11.003709968936661 4.713998474608924 4.71179555712757 0 0 0
121 1 12.576206996665706 3.1428354260552416 3.1408050316717726 0 0 0
122 1 14.149182219514255 4.713732091104786 4.711823320984185 0 0 0
123 1 15.72112545381356 3.142680904543325 3.140844607211262 0 0 0
124 1 17.294756126312926 4.713550546163115 4.71161774394595 0 0 0
125 1 18.865531242021685 3.1427854324389055 3.14097194725182 0 0 0
126 1 20.437606607503156 4.7147741863249495 4.712870380974882 0 0 0
127 1 22.00877708976128 6.287686042575751 3.1412962613390314 -1 0 0
128 1 1.57074130421834 7.85997170409543 4.713191055791723 0 0 0
129 1 3.142302132505781 6.287624145423621 3.14108634856976 0 0 0
130 1 4.713763883653737 7.859844618425792 4.712472736796129 0 0 0
131 1 6.285338329684465 6.286477690085047 3.1395996334829532 0 0 0
132 1 7.855938406305914 7.857154891009668 4.708126072850167 0 0 0
133 1 9.430567744413965 6.286129662646403 3.1391581320383026 0 0 0
134 1 11.002500234999548 7.85751580462644 4.70745376848362 0 0 0
135 1 12.576396036022206 6.286299971306067 3.1394704168847434 0 0 0
136 1 14.15199100594184 7.856189289083704 4.706872656785177 0 0 0
137 1 15.72244701758949 6.285905882014625 3.1391208230098573 0 0 0
138 1 17.294412366965005 7.85926449248054 4.7118022681696905 0 0 0
139 1 18.865692615139057 6.287275522896026 3.140812293677276 0 0 0
140 1 20.437353261042553 7.859797193802067 4.713026443579371 0 0 0
141 1 22.008633636447136 9.432285121110086 3.1413394136868815 -1 0 0
142 1 1.5705466515843454 11.004581408218025 4.71323463597823 0 0 0
143 1 3.1423028240136066 9.432353998927995 3.1411687776354777 0 0 0
144 1 4.713777205782765 11.004746793593938 4.712644168027107 0 0 0
145 1 6.285800181518377 9.432393574607008 3.1403410870594266 0 0 0
146 1 7.857755623786206 11.005163479879524 4.710866367674409 0 0 0
147 1 9.429653464197337 9.431270260399446 3.1368856641757508 0 0 0
148 1 11.002714733951331 11.006103260375104 4.697869667522603 0 0 0
149 1 12.577237268886696 9.43105405323399 3.1352118362284083 0 0 0
150 1 14.149636861423447 11.00587111858566 4.708737524788865 0 0 0
151 1 15.721666327269807 9.43212982233304 3.1397353128401138 0 0 0
152 1 17.2937239618779 11.0046767554645 4.71212274540426 0 0 0
153 1 18.865362908302505 9.432204504287029 3.1409762200310323 0 0 0
154 1 20.43700653589233 11.004534262156405 4.713141921910908 0 0 0
155 1 22.00842530009717 12.576782228180592 3.1413987701070063 -1 0 0
156 1 1.570278849125963 14.149131157127838 4.71328710835451 0 0 0
157 1 3.142106670863768 12.57691970683366 3.1411809070486694 0 0 0
158 1 4.71334087828816 14.149656618405688 4.712433350202579 0 0 0
159 1 6.285571312390381 12.577313473551985 3.14030395833198 0 0 0
160 1 7.855526698315069 14.153054117162126 4.707868586797552 0 0 0
161 1 9.429327418279584 12.579062880697489 3.1368847193351 0 0 0
162 1 11.003214355959994 14.151716156125936 4.709408149462309 0 0 0
163 1 12.57708538764628 12.578896666810852 3.1370395207220962 0 0 0
164 1 14.150746998449174 14.152775554660677 4.7080620931666015 0 0 0
165 1 15.721727308602764 12.57757914005162 3.139734927350176 0 0 0
166 1 17.293749420248695 14.149785407309384 4.712311966218506 0 0 0
167 1 18.865179174682797 12.57691329575849 3.141067844877818 0 0 0
168 1 20.436798972778142 14.14912816861011 4.713258084954352 0 0 0
169 1 22.00830938656708 15.721227200165686 3.1414487188474767 -1 0 0
170 1 1.5699767152799675 17.293781758277913 4.713249899057114 0 0 0
171 1 3.141909976264583 15.721567262380319 3.1411173879658936 0 0 0
172 1 4.712838381818169 17.295115671190967 4.712106230922834 0 0 0
173 1 6.2850267962013735 15.72314187763391 3.139505147352846 0 0 0
174 1 7.857977016066266 17.295598149281417 4.711876334551601 0 0 0
175 1 9.430727005791292 15.723235180458314 3.13971388872642 0 0 0
176 1 11.003356764045789 17.29558879631789 4.711836083696462 0 0 0
177 1 12.576062895232527 15.723165183121948 3.1397481235950075 0 0 0
178 1 14.14877176325889 17.295407254464898 4.711958885387188 0 0 0
179 1 15.721813177591997 15.722968080630576 3.1395981761993683 0 0 0
180 1 17.2940655437504 17.29497400523417 4.712155813096061 0 0 0
181 1 18.865141393190996 15.721528859903879 3.141167442040505 0 0 0
182 1 20.436734401495755 17.293609997353922 4.713376126525712 0 0 0
183 1 22.008314435738885 18.86544596327744 3.1414993951833123 -1 0 0
184 1 1.5704756153477595 20.43735485748483 4.713687745272989 0 0 0
185 1 3.142009833287255 18.86587028467318 3.141214493645153 0 0 0
186 1 4.713964882823419 20.4379360927989 4.713119157962254 0 0 0
187 1 6.286206837310843 18.866369721418415 3.140906529613067 0 0 0
188 1 7.858616626143269 20.438189392640744 4.71290922929245 0 0 0
189 1 9.431061533964717 18.86657193014964 3.1407970714747053 0 0 0
190 1 11.003554867781821 20.43822802072365 4.712842141490113 0 0 0
191 1 12.57601271833703 18.866480328589336 3.1408311392665156 0 0 0
192 1 14.148481307745048 20.43801295209348 4.712964631606002 0 0 0
193 1 15.720864301196446 18.866193953046924 3.1409550407569253 0 0 0
194 1 17.29319272272313 20.43772575547043 4.713129396274774 0 0 0
195 1 18.865113004499538 18.86578115162688 3.1412116573315467 0 0 0
196 1 20.436698375365182 20.437196311918793 4.713692399279535 0 0 0
197 1 22.00848438859288 22.00894205988131 6.285894010271089 -1 -1 0
198 1 1.570750258394319 1.5712781588363354 7.858010842069188 0 0 0
199 1 3.14233275673178 22.00918893546778 6.285746972751996 0 -1 0
200 1 4.714182117105749 1.5712644081311866 7.8578196025206015 0 0 0
201 1 6.286076205771764 22.00938638781566 6.285130620787931 0 -1 0
202 1 7.858081447144486 1.5704901971785006 7.857054375852558 0 0 0
203 1 9.431030988646132 22.00949218137854 6.28500177921427 0 -1 0
204 1 11.003553485220557 1.570633789613516 7.85712173280198 0 0 0
205 1 12.57609451246923 22.009413474744935 6.285041060713246 0 -1 0
206 1 14.149026917760516 1.5702832202134271 7.857094929390573 0 0 0
207 1 15.721112275909556 22.00910434914655 6.285141262619211 0 -1 0
208 1 17.29347189520086 1.5705146848771856 7.8575991778367404 0 0 0
209 1 18.865047007040644 22.008806000289077 6.285679836044417 0 -1 0
210 1 20.43701554132466 1.5709774776169012 7.857934021421965 0 0 0
211 1 22.008861752411324 3.143014557685854 6.285616381714078 -1 0 0
212 1 1.5709423528414965 4.715036164343892 7.857802963957029 0 0 0
213 1 3.1423366596733 3.1430137475243907 6.285503747681738 0 0 0
214 1 4.713772679453442 4.71448158807162 7.857478727248861 0 0 0
215 1 6.285502395506773 3.141810543876936 6.284373260711478 0 0 0
216 1 7.856198174153719 4.710697683891567 7.854850937508293 0 0 0
217 1 9.430986778747908 3.141915142093517 6.284347121702368 0 0 0
218 1 11.003466574820362 4.712109394423311 7.856096542169283 0 0 0
219 1 12.576286354251511 3.142038763408662 6.284465326494114 0 0 0
220 1 14.150676401624347 4.710664840935671 7.855472312722977 0 0 0
221 1 15.721904667192828 3.1414417508583883 6.284381951458534 0 0 0
222 1 17.29512047040847 4.712903326297054 7.856538129045465 0 0 0
223 1 18.865772380657937 3.142376880660016 6.285157844252803 0 0 0
224 1 20.43781883937533 4.714549899357948 7.857534161323283 0 0 0
225 1 22.00904976950797 6.287015114809102 6.285011345426082 -1 0 0
226 1 1.5703243872845487 7.859190475068981 7.857072946032187 0 0 0
227 1 3.141342072229015 6.286606344164109 6.284493514322423 0 0 0
228 1 4.710802808447559 7.8573990218800365 7.855071403748434 0 0 0
229 1 6.28257210031941 6.2836531437138765 6.28130466522372 0 0 0
230 1 7.847241243068637 7.8473837937052435 7.844816342521096 0 0 0
231 1 9.429339413800518 6.283498532261731 6.280902535462682 0 0 0
232 1 10.997860989122413 7.852844894114663 7.8477240619779876 0 0 0
233 1 12.576804848017689 6.284558347490823 6.282132613144836 0 0 0
234 1 14.164782371852478 7.844741463769309 7.843302095420168 0 0 0
235 1 15.726049913183891 6.28222308777839 6.280073008136023 0 0 0
236 1 17.29925561492407 7.855898817230956 7.8539273260048645 0 0 0
237 1 18.867380001792476 6.285863908536311 6.283885416024794 0 0 0
238 1 20.438693970597143 7.858816570069158 7.85681588243339 0 0 0
239 1 22.00879772345049 9.432195727344299 6.285233756073424 -1 0 0
240 1 1.5703547861690423 11.004595533424164 7.85739638084605 0 0 0
241 1 3.1422192113156315 9.432384721292149 6.284991329385391 0 0 0
242 1 4.713872211890372 11.0046990427496 7.857366127190427 0 0 0
243 1 6.285873293871211 9.432936626389644 6.283879827717274 0 0 0
244 1 7.86277789611621 11.005026846664371 7.860146973357638 0 0 0
245 1 9.425353363122948 9.427015819805826 6.273889147620351 0 0 0
246 1 11.001328814150234 11.008824308872923 7.786216986248737 0 0 0
247 1 12.580398261977681 9.426396866678711 6.264665583692507 0 0 0
248 1 14.147745654321577 11.008936608200997 7.8518895724829685 0 0 0
249 1 15.72264952803945 9.432230333459362 6.282218706373132 0 0 0
250 1 17.294391842338232 11.004905799700504 7.856323486129058 0 0 0
251 1 18.865965568413124 9.432119381216536 6.284634263413979 0 0 0
252 1 20.437333257377624 11.004554348840431 7.857305841402039 0 0 0
253 1 22.008360269877628 12.576871396575331 6.285339372028915 -1 0 0
254 1 1.5692714702666906 14.149830251660438 7.857223366410031 0 0 0
255 1 3.1418754223176975 12.576919010240058 6.285038935204507 0 0 0
256 1 4.709765640796336 14.15236876964394 7.854906575282051 0 0 0
257 1 6.285416133761393 12.576921310393129 6.283872625034901 0 0 0
258 1 7.845600603781016 14.16426928947667 7.843584885241943 0 0 0
259 1 9.424502503180408 12.584769334816388 6.274042876466109 0 0 0
260 1 11.002628208926986 14.154970597756854 7.852169497872982 0 0 0
261 1 12.580528511300884 12.584649807802332 6.275409000156599 0 0 0
262 1 14.16049816814495 14.164788947862723 7.843254911493221 0 0 0
263 1 15.722397886147897 12.578003553903237 6.282518425507641 0 0 0
264 1 17.294943166010377 14.150415071150972 7.856393760070371 0 0 0
265 1 18.86545060075129 12.576978736526677 6.284747363248715 0 0 0
266 1 20.436740734166115 14.149444503999504 7.8574280599462 0 0 0
267 1 22.00795249567409 15.721587939430496 6.285408649334028 -1 0 0
268 1 1.569964256182282 17.29364786836782 7.857999462135665 0 0 0
269 1 3.1405376270404544 15.722627976704448 6.284510183054341 0 0 0
270 1 4.71319193468785 17.294836543841893 7.857530937480205 0 0 0
271 1 6.2818562351628655 15.726384677678992 6.280954895143187 0 0 0
272 1 7.856118484046109 17.29884724376302 7.855207395010796 0 0 0
273 1 9.430199245466836 15.725527356674121 6.282239375925813 0 0 0
274 1 11.002894666568903 17.297660339856755 7.855984431422857 0 0 0
275 1 12.575951650119652 15.725529496018686 6.2823781914850025 0 0 0
276 1 14.150225727134702 17.298715029976798 7.855296337320165 0 0 0
277 1 15.724765772012292 15.726348306344224 6.280920583391789 0 0 0
278 1 17.29296336060947 17.293906718024004 7.857872454578889 0 0 0
279 1 18.865586487856426 15.721940516176593 6.285053662360528 0 0 0
280 1 20.43624931748381 17.29328940195906 7.858130005429647 0 0 0
281 1 22.00813741742651 18.86533933692535 6.285902298662409 -1 0 0
282 1 1.5704104000867656 20.437281290991958 7.858094800939502 0 0 0
283 1 3.1418761998876903 18.865911819384593 6.285611181521927 0 0 0
284 1 4.713968021851825 20.437831132749874 7.857851021076535 0 0 0
285 1 6.285262970457167 18.86754338365826 6.28445548644674 0 0 0
286 1 7.858009968630569 20.438817856849997 7.857140699374958 0 0 0
287 1 9.430735157540143 18.867557338181108 6.284389441198301 0 0 0
288 1 11.003367387710432 20.438759576545237 7.857139223536521 0 0 0
289 1 12.57596501333304 18.86742712302174 6.284488683005415 0 0 0
290 1 14.148844103788734 20.438562589420936 7.857177844416419 0 0 0
291 1 15.721577929296561 18.86726601222909 6.284502212142538 0 0 0
292 1 17.292978484971115 20.437276813120498 7.857867031836887 0 0 0
293 1 18.864860809804643 18.865479009801646 6.285746594065847 0 0 0
294 1 20.436546940932427 20.43702018880724 7.858103904588594 0 0 0
295 1 22.008427304012987 22.008890643026852 9.430289185267872 -1 -1 0
296 1 1.570741153790077 1.571274359327328 11.002487186152363 0 0 0
297 1 3.142301221580521 22.009179713715575 9.430246664906576 0 -1 0
298 1 4.714180207737147 1.571305329593644 11.002487799093883 0 0 0
299 1 6.286089096703758 22.009401043371845 9.430083298333424 0 -1 0
300 1 7.8582055849463535 1.570819550753486 11.00248773375077 0 0 0
301 1 9.430643964566764 22.00939857598926 9.429724613846385 0 -1 0
302 1 11.003489870498367 1.5692915419621358 11.002487825974622 0 0 0
303 1 12.576248729228174 22.009253281747842 9.429720115386287 0 -1 0
304 1 14.148937750319647 1.5700381077332421 11.00248786153662 0 0 0
305 1 15.721053975038961 22.008754047290857 9.430028330255274 0 -1 0
306 1 17.293447520798367 1.5704118720139888 11.002487581427614 0 0 0
307 1 18.864968308389958 22.008658479410663 9.430212883368863 0 -1 0
308 1 20.43699627139153 1.570935636235594 11.00248732735798 0 0 0
309 1 22.00890859298333 3.1429763266095714 9.430177480709087 -1 0 0
310 1 1.571022319369268 4.715051434464876 11.002487131769305 0 0 0
311 1 3.1424763187782467 3.1431066260164613 9.430192559101895 0 0 0
312 1 4.713997061597823 4.714785451400573 11.002487617888104 0 0 0
313 1 6.2859089624999225 3.142487605876498 9.430033218794362 0 0 0
314 1 7.857702249124926 4.713246322913272 11.00248696183737 0 0 0
315 1 9.429936687833274 3.139922468391296 9.428924131387472 0 0 0
316 1 11.002718073926392 4.703839818725 11.002486643017457 0 0 0
317 1 12.576869455946069 3.139869857243763 9.429034015533585 0 0 0
318 1 14.15021916225801 4.710236853468652 11.002486860341236 0 0 0
319 1 15.722013647053382 3.1410364498803016 9.429705320554788 0 0 0
320 1 17.29503934688684 4.712896981676935 11.00248732475654 0 0 0
321 1 18.865772091559382 3.142277980724627 9.430011749946956 0 0 0
322 1 20.437869542121383 4.714513792383065 11.002487474036034 0 0 0
323 1 22.009416276956035 6.286973389310526 9.430005340575963 -1 0 0
324 1 1.5709491437049166 7.859442474356901 11.002487504023703 0 0 0
325 1 3.142386181900233 6.287056465552155 9.430134179148096 0 0 0
326 1 4.713812102390617 7.859801470850741 11.002487706388514 0 0 0
327 1 6.285422072681767 6.28589332624715 9.430099919589551 0 0 0
328 1 7.859345918856759 7.8612030189282915 11.002487241736246 0 0 0
329 1 9.425322587853339 6.27737342557866 9.42443250051668 0 0 0
330 1 10.99584641643467 7.8036940012834295 11.002487206176774 0 0 0
331 1 12.578937413361615 6.278258412398109 9.427610041400383 0 0 0
332 1 14.161266719401857 7.844898719309999 11.002487365618672 0 0 0
333 1 15.726037904546438 6.281571162440747 9.428078331559568 0 0 0
334 1 17.298801221685256 7.856382112546631 11.002487046744303 0 0 0
335 1 18.867527828877844 6.285660439822986 9.429571741065134 0 0 0
336 1 20.43888509267279 7.858831329835885 11.00248787930178 0 0 0
337 1 22.009183739547396 9.431697153261979 9.42963654296396 -1 0 0
338 1 1.5686102880558646 11.004577628945222 11.002487619630514 0 0 0
339 1 3.14026762598666 9.43108476154634 9.428777207617909 0 0 0
340 1 4.701552225742147 11.004675741535735 11.002487691724179 0 0 0
341 1 6.280984121373677 9.425764254145049 9.423071938388482 0 0 0
342 1 7.7759242342657116 11.00520684885793 11.002487150851788 0 0 0
343 1 9.398122566854498 9.381230387942567 9.381184334471147 0 0 0
344 1 20.436763338224416 20.43730899887991 20.43541245144695 0 0 0
345 1 12.616913684169049 9.365802338266008 9.356623176139706 0 0 0
346 1 14.209903078352887 11.009516801976197 11.002487948315034 0 0 0
347 1 15.735466695561346 9.424325676359105 9.4229541867593 0 0 0
348 1 17.306285458239813 11.003931630096153 11.002487140995877 0 0 0
349 1 18.869586474498664 9.430439841484601 9.428619422542013 0 0 0
350 1 20.439072262455888 11.004464871775292 11.002487903276553 0 0 0
351 1 22.007983346838895 12.577196941060071 9.429721742974833 -1 0 0
352 1 1.5695519837659673 14.14951383332202 11.002487732040924 0 0 0
353 1 3.1394433947350393 12.578264555141573 9.428814752507309 0 0 0
354 1 4.712591549044864 14.150056158741513 11.002487755341564 0 0 0
355 1 6.278907857854859 12.584373888428916 9.422943093169392 0 0 0
356 1 7.858119511515392 14.149329793719268 11.00248752181313 0 0 0
357 1 9.390578690866077 12.63381219637948 9.37960181495865 0 0 0
358 1 11.000968824523495 14.194944345481687 11.002487773976167 0 0 0
359 1 12.615886791133825 12.64112770698607 9.385702069497958 0 0 0
360 1 14.144372502755894 14.148895546934915 11.002487466459597 0 0 0
361 1 15.72061540313782 12.578118471471166 9.425742742786055 0 0 0
362 1 17.29106818103641 14.14760107446942 11.002487380345425 0 0 0
363 1 18.86601969689581 12.577488137460403 9.428898307568543 0 0 0
364 1 20.435888738247677 14.148929417506897 11.002487834359046 0 0 0
365 1 22.007672049606025 15.72133096548769 9.430272917494488 -1 0 0
366 1 1.5699231790116435 17.29358910959585 11.002487909978747 0 0 0
367 1 3.1413260782092185 15.722133269360517 9.430173061206528 0 0 0
368 1 4.713317726142938 17.29453727546808 11.002487936547691 0 0 0
369 1 6.284806396429656 15.723945120473413 9.430110511729218 0 0 0
370 1 7.857425431016707 17.29619661774544 11.00248769227434 0 0 0
371 1 9.426644255194516 15.731421763102027 9.42563743733201 0 0 0
372 1 11.00252712966242 17.303493554991164 11.002487930415954 0 0 0
373 1 12.578233529249571 15.732987152426102 9.425937340457038 0 0 0
374 1 14.14866673944453 17.296063536493232 11.002487903230087 0 0 0
375 1 15.720377089283716 15.722239181683364 9.430504607245005 0 0 0
376 1 17.29251499407878 17.293366453587335 11.002487791953865 0 0 0
377 1 18.86415755770793 15.721126360730809 9.430496829145259 0 0 0
378 1 20.436103990862428 17.293172507160865 11.00248800171549 0 0 0
379 1 22.00801058151364 18.86524043308267 9.430316094376709 -1 0 0
380 1 1.5703686989965417 20.437264789399965 11.002487232757511 0 0 0
381 1 3.141899937830212 18.86580502715833 9.430232854999833 0 0 0
382 1 4.713928040931087 20.437797016955855 11.002487570919998 0 0 0
383 1 6.285584971462523 18.866881305528725 9.430078097231892 0 0 0
384 1 7.858063585283707 20.438494556472257 11.00248740247008 0 0 0
385 1 9.429893345587521 18.86917662581672 9.429199988102182 0 0 0
386 1 11.003265124843853 20.43965930298926 11.00248743324411 0 0 0
387 1 12.57637105994087 18.869261156417323 9.42927497110132 0 0 0
388 1 14.14870883724176 20.43813625069067 11.002487414990487 0 0 0
389 1 15.720938149143878 18.866208549661675 9.430103206268523 0 0 0
390 1 17.292886212294274 20.437110544546414 11.00248725920062 0 0 0
391 1 18.864549345913026 18.86516660812005 9.430312770070351 0 0 0
392 1 20.436475920533596 20.436964376970227 11.002487324347927 0 0 0
393 1 22.00842734435512 22.008891221807588 12.574685516122026 -1 -1 0
394 1 1.5707501824522678 1.5712783532484214 14.146964218676695 0 0 0
395 1 3.1423009929865797 22.009180051383368 12.574728292057545 0 -1 0
396 1 4.714182118637533 1.5712646846771867 14.147155316618699 0 0 0
397 1 6.28608896677534 22.009401135887618 12.574892065830733 0 -1 0
398 1 7.858081711954351 1.570490483266956 14.147920698725695 0 0 0
399 1 9.430644021599395 22.009398604393 12.575250725762658 0 -1 0
400 1 11.003553622881045 1.5706340038272313 14.147853553662037 0 0 0
401 1 12.576248770989427 22.00925335046325 12.575255460375626 0 -1 0
402 1 14.149026916884168 1.5702834467731785 14.147880436070661 0 0 0
403 1 15.721054143416772 22.008754008747612 12.574946811094334 0 -1 0
404 1 17.293471848779365 1.5705147539799105 14.147375661503364 0 0 0
405 1 18.864968482015858 22.00865859593723 12.574761789840053 0 -1 0
406 1 20.437015600126408 1.570977661483581 14.147040668116862 0 0 0
407 1 22.008908712601084 3.1429762165885453 12.574796919065955 -1 0 0
408 1 1.570942504988549 4.715036178054892 14.147171958337333 0 0 0
409 1 3.1424762943033455 3.14310662796164 12.57478217267524 0 0 0
410 1 4.713773079716064 4.714481894987028 14.147496209920105 0 0 0
411 1 6.285909252464633 3.142487888594154 12.574941922531528 0 0 0
412 1 7.856198705892253 4.710698215837836 14.15012368420071 0 0 0
413 1 9.429937041103829 3.139922621604456 12.576050375011016 0 0 0
414 1 11.003466488179122 4.712109901126856 14.1488773437391 0 0 0
415 1 12.576869463158692 3.1398699132570447 12.575940576292506 0 0 0
416 1 14.150676537928385 4.710665201996604 14.149502126831539 0 0 0
417 1 15.722013435838704 3.1410365056086675 12.575269583680463 0 0 0
418 1 17.29512024792568 4.712903564614172 14.148436716538015 0 0 0
419 1 18.86577209393136 3.1422779748260825 12.574963020694968 0 0 0
420 1 20.437818805183788 4.7145499400769255 14.14744061523827 0 0 0
421 1 22.009416417948927 6.286973225776618 12.574969622904229 -1 0 0
422 1 1.5703245710909026 7.859190406223391 14.147901985917137 0 0 0
423 1 3.1423862799469657 6.287056426588195 12.574840694882498 0 0 0
424 1 4.710803368304302 7.857399174625458 14.149903490795564 0 0 0
425 1 6.285422500983125 6.285893653730183 12.574875019025166 0 0 0
426 1 7.847242445418743 7.847384782559366 14.160157773388397 0 0 0
427 1 9.42532286114679 6.277373771307351 12.580541202177631 0 0 0
428 1 10.99786061956362 7.852844863103957 14.157251145822528 0 0 0
429 1 12.57893741235345 6.278258233334079 12.577364350430638 0 0 0
430 1 14.164782165274561 7.84474196395382 14.161672907543638 0 0 0
431 1 15.726037579041286 6.281571514742669 12.576895782841701 0 0 0
432 1 17.29925520810734 7.855899060124456 14.151047342784931 0 0 0
433 1 18.867527545351287 6.285660668261578 12.575403387170281 0 0 0
434 1 20.438693988684598 7.858816496720501 14.148159446098667 0 0 0
435 1 22.009183814035183 9.431697197087736 12.575338929537441 -1 0 0
436 1 1.5703549340541525 11.004595908597956 14.147578751901769 0 0 0
437 1 3.140267906854125 9.431084759876871 12.576197738098244 0 0 0
438 1 4.713872290162536 11.004699220807973 14.147608890168154 0 0 0
439 1 6.280985097800752 9.42576454818377 12.581902905374232 0 0 0
440 1 7.862777905336701 11.00502766121642 14.144827889549966 0 0 0
441 1 9.398126257680877 9.381231945022716 12.623788983844426 0 0 0
442 1 11.001328724553474 11.008825064863677 14.218754539256034 0 0 0