LAMMPS data file via write_data, version 2 Aug 2023, timestep = 41, units = metal

690 atoms
3 atom types

0 22.009546999999998 xlo xhi
0 22.009546999999998 ylo yhi
0 22.009546999999998 zlo zhi

Masses

1 183.84
2 1.008
3 4.0026

Atoms # atomic

1 1 22.00615430488551 5.859018646919443e-05 22.007423420115472 -1 0 -1
2 1 1.5681641012439778 1.5714855799650846 1.569803682696219 0 0 0
3 1 3.140305650450214 22.009467947995205 22.00742222190132 0 -1 -1
4 1 4.712177080220088 1.571307133015417 1.5697586447319607 0 0 0
5 1 6.284538186197929 22.009376811619752 22.00742875008122 0 -1 -1
6 1 7.856670219173487 1.5712892823518585 1.5696902747214505 0 0 0
7 1 9.429050222325774 22.009424348071637 22.007431724093014 0 -1 -1
8 1 11.001317158753038 1.5714036556821396 1.5696459231169935 0 0 0
9 1 12.573664859258733 1.6674582632435326e-05 22.00742075287535 0 0 -1
10 1 14.145914830173137 1.571485082412335 1.5696465859621613 0 0 0
11 1 15.718174933843342 0.00014256974689870575 22.007417013749386 0 0 -1
12 1 17.290336261107175 1.5715156024686303 1.5696595080832108 0 0 0
13 1 18.862423638717075 0.00014964866114620045 22.00741037645304 0 0 -1
14 1 20.434232115983114 1.5715972437190757 1.5697740534039726 0 0 0
15 1 22.005797549877116 3.1432906349024443 22.007369843957957 -1 0 -1
16 1 1.5677194782656312 4.715050404137725 1.5695203487078364 0 0 0
17 1 3.139663016733372 3.142868013418012 22.00745993736441 0 0 -1
18 1 4.711132071790229 4.714318527400237 1.5690975521498007 0 0 0
19 1 6.284045321239172 3.1426895639723553 22.007460598425155 0 0 -1
20 1 7.856001367547777 4.714253402337173 1.5690094890670934 0 0 0
21 1 9.428844947096186 3.142792724982583 22.007394415793076 0 0 -1
22 1 11.001242555067831 4.7144691921269075 1.5689196985439005 0 0 0
23 1 12.573688870619977 3.142956849209224 22.00731467622519 0 0 -1
24 1 14.146330593757643 4.714554538805526 1.5689392292615043 0 0 0
25 1 15.718318419794521 3.143065786723498 22.007261772314454 0 0 -1
26 1 17.291035394424885 4.714648722233499 1.5689931261692374 0 0 0
27 1 18.862461861654534 3.143191804247661 22.007266000845185 0 0 -1
28 1 20.434233150871243 4.715211531902275 1.5695254213322851 0 0 0
29 1 22.00574359657116 6.287430630468615 22.007295554845424 -1 0 -1
30 1 1.5676404796361176 7.859660377760685 1.5692984382897557 0 0 0
31 1 3.139167344956382 6.2869924789137235 22.007344906893827 0 0 -1
32 1 4.710574864883917 7.859068655003501 1.568603471165269 0 0 0
33 1 6.282970748589978 6.286240643838893 22.007294132682045 0 0 -1
34 1 7.854795677152521 7.858261494599993 1.5671832618309118 0 0 0
35 1 9.428322101939704 6.286216664366534 22.007180047155888 0 0 -1
36 1 11.001089365695016 7.858424104478062 1.5668655579825648 0 0 0
37 1 12.574020620483239 6.286448338177762 22.007005546337695 0 0 -1
38 1 14.14772711985443 7.858321431317116 1.56694552425691 0 0 0
39 1 15.71927858150823 6.2865561865965285 22.006906196360692 0 0 -1
40 1 17.29152637510193 7.8593814736383125 1.5687219917305675 0 0 0
41 1 18.862764107863406 6.28728654604871 22.007174861345028 0 0 -1
42 1 20.434470315382633 7.859735057544387 1.5693271204937946 0 0 0
43 1 22.005958746006026 9.432218322723546 22.0072486745433 -1 0 -1
44 1 1.5678796944727145 11.004755060239017 1.5692194793934886 0 0 0
45 1 3.1391878277120377 9.432100711753158 22.007211758043407 0 0 -1
46 1 4.710753042346483 11.004721368458572 1.5685180409736479 0 0 0
47 1 6.282630588834794 9.431666688204716 22.007045824133787 0 0 -1
48 1 7.85473718401532 11.004539866917913 1.5665608931793902 0 0 0
49 1 9.427898587607462 9.431365638949828 22.006597052403656 0 0 -1
50 1 11.001361792786795 11.004749646024644 1.5639771647280079 0 0 0
51 1 12.57471221706185 9.431407744694528 22.006401900584216 0 0 -1
52 1 14.147972454018449 11.004963982532127 1.5665945118735813 0 0 0
53 1 15.719760115772013 9.431899704103182 22.006907831533113 0 0 -1
54 1 17.291950372407943 11.00478186990631 1.5685656402836086 0 0 0
55 1 18.86317473855284 9.432155366773776 22.007169336658976 0 0 -1
56 1 20.434814602190457 11.004766506191492 1.5692581266810737 0 0 0
57 1 22.00629705911841 12.577298753176503 22.007250581145968 -1 0 -1
58 1 1.5682126867042951 14.149802123383203 1.569303429484234 0 0 0
59 1 3.1395260662694775 12.577357412286416 22.007133795883842 0 0 -1
60 1 4.711154993052173 14.15012780149727 1.5686765974923413 0 0 0
61 1 6.2829477634717525 12.577596195353625 22.006870889878513 0 0 -1
62 1 7.854957681857572 14.151165806195712 1.5669256903633484 0 0 0
63 1 9.428008291752308 12.578091598014769 22.006390899925574 0 0 -1
64 1 11.001626447436092 14.15106986890355 1.5668688997929499 0 0 0
65 1 12.574841853063733 12.578134790795946 22.00661945115337 0 0 -1
66 1 14.147957193757335 14.151251467205094 1.5672009717428268 0 0 0
67 1 15.720121279954755 12.577844335384626 22.00708675526347 0 0 -1
68 1 17.292172923959257 14.150461943212152 1.568626802582698 0 0 0
69 1 18.863533477648225 12.577424075446672 22.007246083877554 0 0 -1
70 1 20.43506761798721 14.14988378302318 1.5693275869856091 0 0 0
71 1 22.006519129393872 15.722135171404181 22.007300720978375 -1 0 -1
72 1 1.568446360075636 17.294345354616393 1.5695155515605796 0 0 0
73 1 3.139912528069254 15.72224746670507 22.00715945691434 0 0 -1
74 1 4.711640299556411 17.294870604807574 1.5689830449684918 0 0 0
75 1 6.28341033022239 15.72294945993381 22.00689696519773 0 0 -1
76 1 7.856350120992097 17.294930399795078 1.568940727107926 0 0 0
77 1 9.428671323635742 15.723029562235332 22.007015068361817 0 0 -1
78 1 11.00147201141965 17.29499302060704 1.5689301496632342 0 0 0
79 1 12.57442271580385 15.72327724890825 22.00720273339418 0 0 -1
80 1 14.146757977569834 17.29524981283813 1.5690204541185035 0 0 0
81 1 15.719825300811854 15.72328842319951 22.007325086056483 0 0 -1
82 1 17.29164452669633 17.295253494744415 1.5690980490359636 0 0 0
83 1 18.863595422822574 15.722576369420297 22.007372085503672 0 0 -1
84 1 20.435028007785277 17.29454317634585 1.569525387936882 0 0 0
85 1 22.006484250669494 18.866321408590174 22.00738056125579 -1 0 -1
86 1 1.5684978292468732 20.438020971101203 1.5697763394489153 0 0 0
87 1 3.1402134120766134 18.8663688719812 22.007274377203085 0 0 -1
88 1 4.712355756415165 20.438028183340208 1.5696701580799115 0 0 0
89 1 6.284361057483618 18.866445203818405 22.00727538954621 0 0 -1
90 1 7.856788853215761 20.437991491420608 1.5696496248300813 0 0 0
91 1 9.429011587924313 18.866511162797977 22.007331324765424 0 0 -1
92 1 11.001402355801275 20.438048481086923 1.569644988255728 0 0 0
93 1 12.573881037207052 18.866678256531397 22.0074031135015 0 0 -1
94 1 14.146060128932474 20.438199758376722 1.569685228515273 0 0 0
95 1 15.718731460176258 18.866856624642157 22.007464213187397 0 0 -1
96 1 17.290566643117838 20.438273060918352 1.5697468422514687 0 0 0
97 1 18.863109564462547 18.866755423300226 22.007460522117288 0 0 -1
98 1 20.43459483701373 20.4381622539044 1.56980556462557 0 0 0
99 1 22.0061490053427 3.5094218325139874e-05 3.1419612267605834 -1 0 0
100 1 1.568251786219986 1.5715492229065218 4.713989666945166 0 0 0
101 1 3.140260415627615 22.00953689363448 3.141790348368635 0 -1 0
102 1 4.7120746426861 1.5713297763896301 4.7136659390348425 0 0 0
103 1 6.284542299763033 22.00946430997687 3.141691732806424 0 -1 0
104 1 7.856678656931303 1.5713210526571157 4.713524033705147 0 0 0
105 1 9.429083371904147 22.00948072873304 3.1416235594820248 0 -1 0
106 1 11.001293620221283 1.571436926671243 4.713423274304631 0 0 0
107 1 12.573635897276958 1.4465570821187157e-06 3.141620686014494 0 0 0
108 1 14.14585774293003 1.5713671586448288 4.713505168225275 0 0 0
109 1 15.718174084049497 5.780566219854419e-05 3.141685377926655 0 0 0
110 1 17.290544337755538 1.5712136703616062 4.71353308549955 0 0 0
111 1 18.86248012383385 5.3167278690966376e-05 3.141786831904783 0 0 0
112 1 20.43424318979641 1.5715425619507692 4.713958213292496 0 0 0
113 1 22.005801584327532 3.143200828329772 3.141630744853738 -1 0 0
114 1 1.5674062191694553 4.714732230153946 4.713180186291105 0 0 0
115 1 3.1395669712096788 3.1427757104907927 3.141354349380062 0 0 0
116 1 4.710212672576882 4.713466375160577 4.7119397177362154 0 0 0
117 1 6.283983552945407 3.142620665812979 3.141249816202069 0 0 0
118 1 7.855678423673579 4.713788430528482 4.712000184673063 0 0 0
119 1 9.42883346330247 3.142783625500686 3.141097297289152 0 0 0
120 1 11.001116752435946 4.714371098142263 4.711832203036606 0 0 0
121 1 12.573641029190153 3.1428929203856204 3.1410980010537695 0 0 0
122 1 14.146500773832567 4.713981947977072 4.711935830643252 0 0 0
123 1 15.71843854129854 3.1428014603486867 3.1411206063193045 0 0 0
124 1 17.2916136815431 4.714017467060948 4.712228795884518 0 0 0
125 1 18.862588329721074 3.143019072094969 3.1413821780220514 0 0 0
126 1 20.434316697667533 4.714979388608128 4.713324524189826 0 0 0
127 1 22.005708736556805 6.28731181642912 3.1412499715990587 -1 0 0
128 1 1.5672126556247052 7.859454907767538 4.712742601660082 0 0 0
129 1 3.1388063137551168 6.286736927097586 3.140630464412232 0 0 0
130 1 4.70909860641019 7.858309046917229 4.710687345290417 0 0 0
131 1 6.2820428987992125 6.285401037689104 3.138824795030019 0 0 0
132 1 7.851824049121432 7.855797302199364 4.705587207975726 0 0 0
133 1 9.428028738279014 6.2857708677371456 3.1387753972468992 0 0 0
134 1 11.0004086726501 7.85769152066809 4.70584604277272 0 0 0
135 1 12.574099262529032 6.286105997489792 3.1389397506958923 0 0 0
136 1 14.150534321572186 7.855706343822954 4.705675430636423 0 0 0
137 1 15.720163748041106 6.28569281714545 3.1389377891117918 0 0 0
138 1 17.292352607005476 7.859024197070865 4.711570323062003 0 0 0
139 1 18.863031377757803 6.287101619324492 3.1408923373003166 0 0 0
140 1 20.434588724781367 7.859614029826729 4.712898907711993 0 0 0
141 1 22.005936421987595 9.432202909874148 3.141034648488965 -1 0 0
142 1 1.5675933928708894 11.00476469481371 4.712643358101637 0 0 0
143 1 3.138845688146619 9.432048546706996 3.1404433316197475 0 0 0
144 1 4.709720679494534 11.004777373682673 4.710999174920245 0 0 0
145 1 6.281581209357608 9.431269871945766 3.1379679207857065 0 0 0
146 1 7.852465877888169 11.003759917776081 4.704730576047305 0 0 0
147 1 9.426663882493692 9.43038337340007 3.1339210608401986 0 0 0
148 1 11.001342725042358 11.004766092965106 4.691346881156314 0 0 0
149 1 12.575989558204233 9.430370896750194 3.1326391807392358 0 0 0
150 1 14.150203537820895 11.0057550233557 4.704775662837604 0 0 0
151 1 15.720494020418483 9.431714267114744 3.138503388176902 0 0 0
152 1 17.292929607958428 11.00472339179749 4.71105557651145 0 0 0
153 1 18.863445109584003 9.432113167636583 3.1405640340898073 0 0 0
154 1 20.4350721928723 11.004749297557707 4.71267651390964 0 0 0
155 1 22.00628795126398 12.577326057187072 3.1410322335769085 -1 0 0
156 1 1.5680762237738404 14.149909550335707 4.7128702229343755 0 0 0
157 1 3.1392262397313035 12.577402042888531 3.1405095944211947 0 0 0
158 1 4.710285171146349 14.150480136975059 4.711511119499744 0 0 0
159 1 6.282182217526934 12.577783652977669 3.138451439389392 0 0 0
160 1 7.852122203541021 14.153788123007233 4.705641487708246 0 0 0
161 1 9.426702828352658 12.579133968821491 3.132628977126337 0 0 0
162 1 11.002277850415133 14.151818825826382 4.70585784728531 0 0 0
163 1 12.576043617347699 12.579134052236226 3.1339383138590824 0 0 0
164 1 14.15088806385537 14.153726039146903 4.705597003361308 0 0 0
165 1 15.721123574260693 12.578244770883698 3.138006466329337 0 0 0
166 1 17.293605934131552 14.151203960533252 4.710706496804567 0 0 0
167 1 18.86385521340421 12.577465707673472 3.1404835742731168 0 0 0
168 1 20.43547640473097 14.150058769830414 4.712753311033077 0 0 0
169 1 22.006523784659624 15.72223602706845 3.1412461311951603 -1 0 0
170 1 1.5683770846532974 17.294564733293758 4.713317149096706 0 0 0
171 1 3.1396348904143307 15.722416119052534 3.1408616135607845 0 0 0
172 1 4.711064341750681 17.295494403836802 4.712196364933373 0 0 0
173 1 6.2825003658749585 15.723796672419235 3.138906043892192 0 0 0
174 1 7.856180182095572 17.295503812733685 4.711922755721654 0 0 0
175 1 9.428586668259742 15.723368908360076 3.138935622375928 0 0 0
176 1 11.001579363895466 17.295116391629104 4.711824569749258 0 0 0
177 1 12.57469680326975 15.723726003583435 3.138771839614643 0 0 0
178 1 14.147055643272418 17.295718358917867 4.711988237416889 0 0 0
179 1 15.720707163028623 15.72412074814633 3.138822403643743 0 0 0
180 1 17.292531074601836 17.296086029494184 4.711920767045011 0 0 0
181 1 18.863928942163078 15.722811806837973 3.140639825216901 0 0 0
182 1 20.435308416268665 17.29482471361032 4.713170726603992 0 0 0
183 1 22.006471216176855 18.866406173693985 3.1416304434551674 -1 0 0
184 1 1.5684895505088987 20.438022667088344 4.7139524309933005 0 0 0
185 1 3.1401036080850737 18.866536389251717 3.141371121976188 0 0 0
186 1 4.712178483975384 20.438312166392006 4.713519029081727 0 0 0
187 1 6.284250828214659 18.866698967649192 3.141111836634329 0 0 0
188 1 7.856861767066234 20.43813156900515 4.7135043191055885 0 0 0
189 1 9.429065125353642 18.86657677262371 3.1411028513293093 0 0 0
190 1 11.001424082340044 20.438054387892983 4.713426275833999 0 0 0
191 1 12.573895083362636 18.866687199046904 3.141097828411278 0 0 0
192 1 14.14605136866022 20.438181269188934 4.713515817210593 0 0 0
193 1 15.71876562845735 18.86691361077792 3.1412396860641647 0 0 0
194 1 17.290666176927243 20.438219352251917 4.7136584069870935 0 0 0
195 1 18.863194688813113 18.866819455228907 3.1413470301778963 0 0 0
196 1 20.434491663543607 20.43803081950305 4.713981988037605 0 0 0
197 1 22.006141283434495 22.00954627001954 6.286231531918383 -1 -1 0
198 1 1.5683468029404886 1.5716430279116458 7.858311574305703 0 0 0
199 1 3.1403710170196915 0.00010558818391291753 6.286123553325819 0 0 0
200 1 4.7123754495297 1.5717939324928805 7.858281661192148 0 0 0
201 1 6.284449578907148 0.0002700608284846985 6.28576383731319 0 0 0
202 1 7.856657704415934 1.5718399514751784 7.857857430862285 0 0 0
203 1 9.429142652294857 4.720881217571447e-05 6.285710452584139 0 0 0
204 1 11.001150628708082 1.5716648795977015 7.857754383144321 0 0 0
205 1 12.573578217551438 22.00946534804026 6.285714492980268 0 -1 0
206 1 14.146189948754207 1.570609551693246 7.85754171624249 0 0 0
207 1 15.718287809580097 22.009249385566456 6.285765303259241 0 -1 0
208 1 17.290401683574807 1.571200282461528 7.858066019346954 0 0 0
209 1 18.862371106585282 22.00942621569328 6.286130072473635 0 -1 0
210 1 20.434171431110567 1.5715798583084277 7.858283090413459 0 0 0
211 1 22.005882043991733 3.143270056175747 6.285986317480538 -1 0 0
212 1 1.5677104042724852 4.714969979751025 7.857926188561851 0 0 0
213 1 3.1398431924409467 3.1430556118977946 6.285875724905723 0 0 0
214 1 4.711344478854396 4.714565938406212 7.857730764440007 0 0 0
215 1 6.283870137959112 3.1424700459700805 6.285352791059136 0 0 0
216 1 7.855913528615339 4.713850111763173 7.856975996255176 0 0 0
217 1 9.42877509471582 3.1429050192768564 6.284940388142817 0 0 0
218 1 11.000353113533192 4.715275551527956 7.856425471454759 0 0 0
219 1 12.573360898531927 3.1429139457824204 6.285077791739357 0 0 0
220 1 14.148008804289452 4.711455151545226 7.855173130882861 0 0 0
221 1 15.719010953241852 3.1419405685994417 6.2847600835661215 0 0 0
222 1 17.29136046434306 4.714357838629418 7.857249264641781 0 0 0
223 1 18.862564971802794 3.143021683450619 6.285718217448296 0 0 0
224 1 20.43422348796595 4.71511200089413 7.857919306870009 0 0 0
225 1 22.00549364228511 6.28697838279888 6.285187212648328 -1 0 0
226 1 1.566283090332183 7.858846024023616 7.8568989560298315 0 0 0
227 1 3.137570944579915 6.28589269891204 6.284092422456584 0 0 0
228 1 4.705522156181929 7.856307678454536 7.853972321965984 0 0 0
229 1 6.2786490911437225 6.282302406094871 6.280066112391688 0 0 0
230 1 7.840194868445285 7.846075414380161 7.8411268945927 0 0 0
231 1 9.42735369449694 6.285116316575311 6.281187802358757 0 0 0
232 1 10.996842425853423 7.860413173903853 7.846665767057882 0 0 0
233 1 12.573802542757187 6.285645723750022 6.281605489283844 0 0 0
234 1 14.157538112020118 7.847408666497071 7.845291130901621 0 0 0
235 1 15.72225401695531 6.283560868159932 6.281093956158382 0 0 0
236 1 17.293856572831178 7.858371793403154 7.855747678140082 0 0 0
237 1 18.863522942374843 6.286720692382485 6.284742451577467 0 0 0
238 1 20.43478302088121 7.8592819493909944 7.857137502555403 0 0 0
239 1 22.005766195002582 9.432093389848493 6.284914711128308 -1 0 0
240 1 1.5670374606744444 11.004693293021841 7.856989897643229 0 0 0
241 1 3.137635988628538 9.431824975941703 6.283950375161753 0 0 0
242 1 4.707674816384935 11.004632612616621 7.855503300182087 0 0 0
243 1 6.277882711948731 9.429856284481785 6.27898476115113 0 0 0
244 1 7.8462471746358755 10.999121082023146 7.844075487964844 0 0 0
245 1 9.419417967483843 9.42505501409029 6.26765471168069 0 0 0
246 1 11.001332073616291 11.00482065540423 7.76287501673682 0 0 0
247 1 12.582448969932711 9.425978704833298 6.260205276376226 0 0 0
248 1 14.156364871204351 11.010447163581405 7.844146404211539 0 0 0
249 1 15.722233624424403 9.4312823249277 6.280933976201527 0 0 0
250 1 17.294940323291563 11.004869849144558 7.8555634961521195 0 0 0
251 1 18.86403766309014 9.432035991814548 6.284237180464001 0 0 0
252 1 20.43559683830514 11.004795657671886 7.857013141773709 0 0 0
253 1 22.006435057318672 12.577410075038935 6.28491065816958 -1 0 0
254 1 1.5678595050531285 14.150230551237376 7.857105747314506 0 0 0
255 1 3.138592002482525 12.577467043252623 6.284178460376398 0 0 0
256 1 4.7087432150980915 14.151142789109118 7.855684012107791 0 0 0
257 1 6.280379750757774 12.578226118944047 6.280870817937137 0 0 0
258 1 7.845056388176713 14.162152506482636 7.845219963827336 0 0 0
259 1 9.420195710441066 12.583568434026997 6.260162337727478 0 0 0
260 1 11.00582589789287 14.149156536712223 7.846691298591937 0 0 0
261 1 12.583261529796303 12.584512997508316 6.267696485429063 0 0 0
262 1 14.162529777792338 14.163523609209816 7.841123279032826 0 0 0
263 1 15.72477706193557 12.579662490646124 6.27903281138384 0 0 0
264 1 17.297154194988817 14.153203139690401 7.854004394905434 0 0 0
265 1 18.865024174930564 12.577676043378043 6.283990309158281 0 0 0
266 1 20.43638438405711 14.150645842172061 7.856904436700354 0 0 0
267 1 22.006741942903037 15.722535851146258 6.2851803099232 -1 0 0
268 1 1.5684759032092936 17.29440311829236 7.857902468701415 0 0 0
269 1 3.1391398059359368 15.722800074502487 6.284704070312794 0 0 0
270 1 4.711330449794419 17.295165054284965 7.857213534310497 0 0 0
271 1 6.280371027329979 15.725942146741128 6.2810443862703345 0 0 0
272 1 7.85466467038873 17.298060552595697 7.855151972485145 0 0 0
273 1 9.428870266891687 15.723858679678676 6.281590541446327 0 0 0
274 1 11.002338859979455 17.294259215271737 7.856409664352533 0 0 0
275 1 12.575339703816628 15.724412581400095 6.28118016506621 0 0 0
276 1 14.146816137981263 17.295698968744468 7.856949896267824 0 0 0
277 1 15.724081386280224 15.727233936131674 6.280047519161318 0 0 0
278 1 17.29137784455239 17.294951462053326 7.857717977631104 0 0 0
279 1 18.865131880119755 15.723618834669544 6.284091384908696 0 0 0
280 1 20.434994636525932 17.2945196239305 7.857927940746682 0 0 0
281 1 22.006387175977533 18.8662666830686 6.285977851113479 -1 0 0
282 1 1.5685462566965152 20.437923363832816 7.858269981587319 0 0 0
283 1 3.1401549365635177 18.866498491024508 6.285692255405445 0 0 0
284 1 4.71234312506359 20.438313275723687 7.858049040853689 0 0 0
285 1 6.283701992323465 18.867569709364286 6.284738633684492 0 0 0
286 1 7.85653349544091 20.438909113343176 7.857529917923502 0 0 0
287 1 9.429342463130439 18.866583029769647 6.285065901359992 0 0 0
288 1 11.001574564045677 20.437864412455205 7.857748939229412 0 0 0
289 1 12.57394259095788 18.866601815217596 6.284926302212867 0 0 0
290 1 14.146060823626348 20.43768602770973 7.8578422820413625 0 0 0
291 1 15.718863980382807 18.8670597710007 6.2853235772165466 0 0 0
292 1 17.290353264114845 20.437710258972924 7.858263293154962 0 0 0
293 1 18.862874232160728 18.866470855269558 6.285859896536098 0 0 0
294 1 20.43437952828361 20.437850561259545 7.858309329372816 0 0 0
295 1 22.006125391560108 22.009503400572207 9.430454414213733 -1 -1 0
296 1 1.5683389761029904 1.5716487449149021 11.002520710188687 0 0 0
297 1 3.1404535676329632 9.925031387239365e-05 9.430403151764002 0 0 0
298 1 4.712391556904178 1.5718248843170934 11.00247390037437 0 0 0
299 1 6.284637918978473 0.0005910024638643893 9.430308684139053 0 0 0
300 1 7.85699325682021 1.5726585890745655 11.002401974830263 0 0 0
301 1 9.428981603895165 0.0006222816268665185 9.430001239242733 0 0 0
302 1 11.001148699425798 1.5708273749612993 11.00238299144286 0 0 0
303 1 12.573743003227941 22.00892237563542 9.429987502628189 0 -1 0
304 1 14.146048897668392 1.570663145374404 11.002405629238973 0 0 0
305 1 15.718091282629201 22.00892812683564 9.430314262209354 0 -1 0
306 1 17.290297344391593 1.5713351361690924 11.0024838684897 0 0 0
307 1 18.862267730340207 22.00938650755147 9.430404770947245 0 -1 0
308 1 20.434107263443103 1.5716294671788793 11.002534601742015 0 0 0
309 1 22.005856294633947 3.143358579187868 9.430362842096637 -1 0 0
310 1 1.5677137550693732 4.715025594113199 11.002503410365453 0 0 0
311 1 3.1400584075529347 3.143308951843433 9.430357576645624 0 0 0
312 1 4.711611843691827 4.714898967386649 11.002471477468527 0 0 0
313 1 6.2845148840182015 3.1438603581175566 9.430544325181538 0 0 0
314 1 7.857999924540259 4.717642686430279 11.002373859180754 0 0 0
315 1 9.428616172865173 3.144120387117314 9.42949288614605 0 0 0
316 1 11.000836666171784 4.709222198032056 11.002320160583896 0 0 0
317 1 12.5741012815342 3.1412238553079175 9.429281473507936 0 0 0
318 1 14.147193021057983 4.712708731151795 11.002435985777222 0 0 0
319 1 15.718720871142907 3.142350960455988 9.429977994801591 0 0 0
320 1 17.290977486225913 4.714846572478196 11.002531410318541 0 0 0
321 1 18.862362002552544 3.1432418616554343 9.430281360663722 0 0 0
322 1 20.43409275191227 4.715222225104949 11.002523411073595 0 0 0
323 1 22.005491518286494 6.287116139694723 9.430089986583134 -1 0 0
324 1 1.5664858857848252 7.858966101795436 11.002506088597201 0 0 0
325 1 3.1385731213019583 6.2864903042792095 9.429943748769594 0 0 0
326 1 4.707910716014803 7.857849624903936 11.002563909618468 0 0 0
327 1 6.282810286941289 6.2865675880350835 9.430020717774099 0 0 0
328 1 7.8542523282671795 7.86222518289677 11.002310904858522 0 0 0
329 1 9.429556986524249 6.292522623247721 9.42737089013554 0 0 0
330 1 10.993012220156334 7.826608461184692 11.002319142604573 0 0 0
331 1 12.577327732999935 6.278515345035142 9.424857867447297 0 0 0
332 1 14.154835664174879 7.853150366781728 11.003178038430276 0 0 0
333 1 15.721160694859222 6.284993926023417 9.428931859828051 0 0 0
334 1 17.29279999822744 7.859910722005157 11.002684804643785 0 0 0
335 1 18.863077449980178 6.287108413067797 9.430035035910326 0 0 0
336 1 20.434486871328982 7.85954966482433 11.002532215746816 0 0 0
337 1 22.005557082902858 9.43178047842576 9.429626740066329 -1 0 0
338 1 1.565645332238059 11.00467133904535 11.002530512094523 0 0 0
339 1 3.13514495692062 9.430642973168633 9.42871480867845 0 0 0
340 1 4.698335524002417 11.003724735470744 11.00274746665262 0 0 0
341 1 6.269716832902816 9.425257604716114 9.422671379795153 0 0 0
342 1 7.789500810113589 10.995641801677587 11.002532771108122 0 0 0
343 1 9.368258857224092 9.392100407028977 9.375720522262165 0 0 0
344 1 20.43468370101723 20.438242664744926 20.43551825296747 0 0 0
345 1 12.629543075246612 9.396945845425458 9.360781377577613 0 0 0
346 1 14.212871466669668 11.01399692060311 11.002627271319536 0 0 0
347 1 15.725217473480173 9.43041270230108 9.426806865244588 0 0 0
348 1 17.30423140981074 11.00580524074346 11.002800516929153 0 0 0
349 1 18.865453730808422 9.431573839092609 9.42890835656914 0 0 0
350 1 20.436995770701767 11.004821842303036 11.002549527743613 0 0 0
351 1 22.006635830515478 12.577706392422714 9.42962964847329 -1 0 0
352 1 1.5681758652484352 14.149951288965822 11.00252106555884 0 0 0
353 1 3.137149668159026 12.577933858362771 9.428865663957774 0 0 0
354 1 4.709813267311391 14.14961229777947 11.0026569657469 0 0 0
355 1 6.277314910869882 12.579179528686028 9.426712902601327 0 0 0
356 1 7.84775641540329 14.156451910145831 11.00315125354571 0 0 0
357 1 9.372967672371718 12.61263977573385 9.360701364454185 0 0 0
358 1 11.009702245153363 14.183185349277425 11.002328103519076 0 0 0
359 1 12.634566823883366 12.61768557804549 9.375868085406667 0 0 0
360 1 14.148536775416833 14.147485341206812 11.002367847209015 0 0 0
361 1 15.7329517925835 12.584288570027176 9.42275731351694 0 0 0
362 1 17.29479041276859 14.151684358654125 11.002612281201486 0 0 0
363 1 18.86750043461804 12.578850414894902 9.428754052346116 0 0 0
364 1 20.436196874044803 14.150518822829994 11.002527652351471 0 0 0
365 1 22.00673942065611 15.722372103725753 9.430082310521657 -1 0 0
366 1 1.5686124691576555 17.294282671390594 11.002514628318808 0 0 0
367 1 3.139589926933119 15.722412792536984 9.430010559163895 0 0 0
368 1 4.711712252531458 17.294677520721986 11.002517026509713 0 0 0
369 1 6.281460542489652 15.724532110527324 9.428894657259539 0 0 0
370 1 7.855480161596065 17.29682893206963 11.002429079615752 0 0 0
371 1 9.425313710847734 15.731078561037647 9.424835918908654 0 0 0
372 1 11.001846517879951 17.300404424518188 11.00232450901595 0 0 0
373 1 12.573163768474014 15.717143500442027 9.427361297025687 0 0 0
374 1 14.144730667370036 17.29195126450985 11.002388602964912 0 0 0
375 1 15.719914502627562 15.722988496218655 9.43003258574094 0 0 0
376 1 17.291102789414413 17.294620569970625 11.002488529920281 0 0 0
377 1 18.864124920722144 15.723004152966768 9.429952403828183 0 0 0
378 1 20.43499379705318 17.294447518697314 11.002518055511647 0 0 0
379 1 22.00639819656228 18.86612380941144 9.430356042581897 -1 0 0
380 1 1.568600081938264 20.437845439390262 11.00253089282624 0 0 0
381 1 3.1403550078226097 18.86627452505948 9.430274465522446 0 0 0
382 1 4.712427572827706 20.438179149557023 11.002479686979932 0 0 0
383 1 6.284004975221883 18.867167367667108 9.42995259396318 0 0 0
384 1 7.856685770097495 20.438872044972154 11.00239904003277 0 0 0
385 1 9.428603653579833 18.868309184624636 9.429274240387862 0 0 0
386 1 11.00156174489585 20.438742706379486 11.002375634316303 0 0 0
387 1 12.574099328996837 18.86544193730564 9.429471237911148 0 0 0
388 1 14.145730596355618 20.436880096720046 11.002394634552402 0 0 0
389 1 15.718211159820333 18.865666927316134 9.430537470875306 0 0 0
390 1 17.29032668155612 20.437671487615432 11.002476657680726 0 0 0
391 1 18.862664956656133 18.866167446240603 9.430355860002607 0 0 0
392 1 20.434377345609338 20.437810077705826 11.002538073375941 0 0 0
393 1 22.006123998520906 22.009509166678626 12.574639604015886 -1 -1 0
394 1 1.5682505487499552 1.5715512487858943 14.146794336864408 0 0 0
395 1 3.1404418068605358 2.8641194553187792e-05 12.57462658023794 0 0 0
396 1 4.712215978623628 1.571483019116007 14.14679944530206 0 0 0
397 1 6.284603126932557 0.0004274807944403043 12.574602641170065 0 0 0
398 1 7.856456443255846 1.5711781133477722 14.147275329473416 0 0 0
399 1 9.428953086611624 0.00043193480003802045 12.574850326906795 0 0 0
400 1 11.001128305334898 1.5712910235952358 14.147331483524177 0 0 0
401 1 12.573758384163042 22.00911303984711 12.574855547026365 0 -1 0
402 1 14.146167954812304 1.5708170139569597 14.147398926207345 0 0 0
403 1 15.718117619229607 22.009094332786564 12.574596699678619 0 -1 0
404 1 17.290361978811 1.571362077807647 14.14694008304454 0 0 0
405 1 18.86227934330087 22.009459501155956 12.574636216086144 0 -1 0
406 1 20.434116118524624 1.5716257239108702 14.146795423913739 0 0 0
407 1 22.005780409593157 3.143339752309275 12.574691740337826 -1 0 0
408 1 1.5674097554910638 4.714801497754307 14.147177524395438 0 0 0
409 1 3.1399372944962662 3.14317623859124 12.574667488243223 0 0 0
410 1 4.710782316079427 4.713953969257484 14.14751637711777 0 0 0
411 1 6.284344343257432 3.1434748273208313 12.574422375615747 0 0 0
412 1 7.855016338121017 4.711825829366051 14.148953835720633 0 0 0
413 1 9.428477699055598 3.1431843705925187 12.575496122588167 0 0 0
414 1 11.000315575778355 4.713681941455574 14.149133806798627 0 0 0
415 1 12.574012770346338 3.1411047001131416 12.575537063058846 0 0 0
416 1 14.147637590576961 4.711780378642118 14.149584384734183 0 0 0
417 1 15.718617597550196 3.1424317590826756 12.574960685857581 0 0 0
418 1 17.291131461242212 4.7144963188019915 14.147699171103177 0 0 0
419 1 18.862301896691243 3.143277857391464 12.574741288796162 0 0 0
420 1 20.434031031456662 4.7151236996410155 14.147107925899563 0 0 0
421 1 22.005318303109238 6.2870758481326385 12.574930021460585 -1 0 0
422 1 1.5657712405369608 7.85870988265511 14.148213192993945 0 0 0
423 1 3.138243568823421 6.286275341124545 12.575123932116544 0 0 0
424 1 4.704076658242734 7.855554673587022 14.1517754742406 0 0 0
425 1 6.282164632029123 6.2856927826128475 12.575134482846954 0 0 0
426 1 7.834508581057743 7.839799485410807 14.170198191154874 0 0 0
427 1 9.42878738169842 6.288526232868816 12.578462033829044 0 0 0
428 1 10.9973286698033 7.855406078686488 14.160992526194441 0 0 0
429 1 12.576559639096663 6.278193690050875 12.579784963426293 0 0 0
430 1 14.154699204061227 7.849296052657095 14.157760534737248 0 0 0
431 1 15.720762511912884 6.285040369809921 12.576261461821444 0 0 0
432 1 17.2928018998057 7.858810487404555 14.14883273947261 0 0 0
433 1 18.862883422477804 6.287140774717298 12.575046293954872 0 0 0
434 1 20.434384179402922 7.859325335978543 14.147808176451633 0 0 0
435 1 22.005347641214353 9.431770284024916 12.575379887776437 -1 0 0
436 1 1.5670615023420953 11.004702995446829 14.148000313281537 0 0 0
437 1 3.1346883935135472 9.430491983672116 12.576462497992397 0 0 0
438 1 4.707706332377445 11.004758587282435 14.149487355624004 0 0 0
439 1 6.2681093534271355 9.424228977818863 12.58323733634324 0 0 0
440 1 7.845235585495713 11.000372936174964 14.16082818507499 0 0 0
441 1 9.358440463496212 9.373373245062504 12.647836969991552 0 0 0