LAMMPS data file via write_data, version 2 Aug 2023, timestep = 20, units = metal

688 atoms
3 atom types

0 22.009546999999998 xlo xhi
0 22.009546999999998 ylo yhi
0 22.009546999999998 zlo zhi

Masses

1 183.84
2 1.008
3 4.0026

Atoms # atomic

1 1 22.009099519798063 22.009543835431323 22.009053617034528 -1 -1 -1
2 1 1.5715712275913452 1.5721458248712221 1.5715724062515197 0 0 0
3 1 3.143640241584128 22.00954383524667 22.00878028529386 0 -1 -1
4 1 4.71560364952909 1.5721063154910078 1.5712802359205555 0 0 0
5 1 6.287707455891438 22.00954383548855 22.008621436683768 0 -1 -1
6 1 7.8597388717480605 1.572090154736681 1.571174018821356 0 0 0
7 1 9.431851943136012 22.00954383578073 22.008649195379288 0 -1 -1
8 1 11.003971181539425 1.5720622353545863 1.57125855835739 0 0 0
9 1 12.576153233399456 22.00954383579416 22.008841386990326 0 -1 -1
10 1 14.148315021218574 1.572025600238417 1.5714725340032738 0 0 0
11 1 15.720546893456458 22.009543835765857 22.009067454573344 0 -1 -1
12 1 17.292684029970285 1.572030008136942 1.571704905452617 0 0 0
13 1 18.864928643044355 22.009543835467053 22.009183585567882 0 -1 -1
14 1 20.43690593882736 1.5720992774516922 1.5717932695552443 0 0 0
15 1 22.009080597838924 3.144122737224637 22.00910056058211 -1 0 -1
16 1 1.5714561039610873 4.716302924132645 1.5715636103720643 0 0 0
17 1 3.1436636033634286 3.1442353953846722 22.00871630297661 0 0 -1
18 1 4.715523736463826 4.716247387592847 1.5711475475468843 0 0 0
19 1 6.287724039548923 3.144211692876016 22.008470048843577 0 0 -1
20 1 7.859711302136668 4.716158346694805 1.570920353552252 0 0 0
21 1 9.431865743109983 3.1441472030922597 22.00851700947736 0 0 -1
22 1 11.003991158147805 4.716113286355694 1.5710349785961277 0 0 0
23 1 12.576169664812316 3.1440592270332 22.00878148232745 0 0 -1
24 1 14.148397639450506 4.71604023448659 1.5714888626706862 0 0 0
25 1 15.720610381271932 3.143978630518146 22.009123582919504 0 0 -1
26 1 17.29277342420289 4.71608692414392 1.5719001478304264 0 0 0
27 1 18.864939031595632 3.144025578602907 22.009280131794245 0 0 -1
28 1 20.436866629099924 4.716258846731956 1.5718573540833611 0 0 0
29 1 22.00901662629274 6.288341949394818 22.009199366178557 -1 0 -1
30 1 1.5713762977951657 7.86054399310743 1.5716010461188852 0 0 0
31 1 3.1435577406729696 6.288384136948141 22.008720469132363 0 0 -1
32 1 4.715436608447176 7.860486937424622 1.5710289007966662 0 0 0
33 1 6.287524146413678 6.2882043756773935 22.008000960743225 0 0 -1
34 1 7.859063496621042 7.859809986600073 1.5698974392620773 0 0 0
35 1 9.431846537627301 6.288189628640336 22.008003643205036 0 0 -1
36 1 11.0040281817284 7.860064523992808 1.570240527167216 0 0 0
37 1 12.57630609351441 6.288047500500731 22.00858892376172 0 0 -1
38 1 14.149075045018442 7.859716788565004 1.571016045948461 0 0 0
39 1 15.721052494666113 6.287821924727529 22.009277620459105 0 0 -1
40 1 17.292736708575852 7.860425136687375 1.572068642411792 0 0 0
41 1 18.864975157041492 6.288224927505841 22.00943976831604 0 0 -1
42 1 20.4367838709903 7.860498857282451 1.5719682644582122 0 0 0
43 1 22.00895715890187 9.432616207198848 22.00926530269491 -1 0 -1
44 1 1.571337316071239 11.004770335022004 1.5716206939832238 0 0 0
45 1 3.1435176057243446 9.432646628057652 22.008743285551397 0 0 -1
46 1 4.715453344693123 11.00477033475217 1.5709891775316727 0 0 0
47 1 6.28760888787465 9.432592881949457 22.007883240409413 0 0 -1
48 1 7.859396620345586 11.004770334834861 1.5697644996552218 0 0 0
49 1 9.431530906753228 9.432144385824444 22.007175664575243 0 0 -1
50 1 11.004029435114491 11.004770334993674 1.5675986654809404 0 0 0
51 1 12.576824900212996 9.432089855467227 22.0082658400712 0 0 -1
52 1 14.148749902411517 11.004770335335117 1.5711869535506915 0 0 0
53 1 15.721019540925292 9.43245633954617 22.009427003330195 0 0 -1
54 1 17.292675859746765 11.004770335364206 1.5720931132828906 0 0 0
55 1 18.864942610945594 9.432565781137042 22.00953923125982 0 0 -1
56 1 20.43673553297139 11.004770335473346 1.5720123940510686 0 0 0
57 1 22.008957158861413 12.576924463256953 22.009265303312496 -1 0 -1
58 1 1.5713762978532795 14.1489966769512 1.571601047049773 0 0 0
59 1 3.143517605560003 12.576894042295553 22.00874328619242 0 0 -1
60 1 4.7154366082754775 14.149053732335254 1.571028901798383 0 0 0
61 1 6.287608887832952 12.5769477886351 22.007883241004095 0 0 -1
62 1 7.859063496586507 14.149730683121224 1.5698974403406767 0 0 0
63 1 9.43153090662988 12.57739628516735 22.007175665224025 0 0 -1
64 1 11.004028181809796 14.149476146349755 1.5702405281854126 0 0 0
65 1 12.576824900505933 12.577450816017105 22.00826584057391 0 0 -1
66 1 14.149075045150944 14.149823881961701 1.571016046872261 0 0 0
67 1 15.721019540954794 12.577084331845047 22.009427003966387 0 0 -1
68 1 17.292736708613933 14.149115534136014 1.572068643420964 0 0 0
69 1 18.864942611065846 12.576974889909161 22.009539231990455 0 0 -1
70 1 20.43678387090653 14.149041813143741 1.5719682654310358 0 0 0
71 1 22.0090166261249 15.721198720981182 22.009199367164715 -1 0 -1
72 1 1.571456103835207 17.29323774604515 1.5715636114418405 0 0 0
73 1 3.1435577404856616 15.721156533301004 22.008720470457472 0 0 -1
74 1 4.71552373650704 17.29329328237116 1.5711475489258133 0 0 0
75 1 6.287524146246459 15.721336294939258 22.008000962360164 0 0 -1
76 1 7.85971130218879 17.293382323501714 1.5709203550904542 0 0 0
77 1 9.431846537775007 15.721351042248017 22.0080036448716 0 0 -1
78 1 11.00399115826385 17.293427384048897 1.5710349801968098 0 0 0
79 1 12.576306093713484 15.72149317075913 22.008588925266718 0 0 -1
80 1 14.148397639700116 17.293500436403637 1.5714888641706182 0 0 0
81 1 15.721052495014598 15.721718746625703 22.009277621531133 0 0 -1
82 1 17.292773424204448 17.293453746687156 1.5719001489270892 0 0 0
83 1 18.864975157180577 15.72131574322065 22.009439769307342 0 0 -1
84 1 20.436866629213096 17.293281823769163 1.5718573550304737 0 0 0
85 1 22.009080597675997 18.865417933580996 22.009100561255202 -1 0 -1
86 1 1.5715712277059535 20.43739484548372 1.5715724063917038 0 0 0
87 1 3.143663603141151 18.86530527545903 22.008716303930935 0 0 -1
88 1 4.715603649443065 20.437434354585786 1.5712802362834524 0 0 0
89 1 6.287724039548308 18.865328978057494 22.008470050266514 0 0 -1
90 1 7.85973887182029 20.437450515781613 1.5711740192848969 0 0 0
91 1 9.431865743187602 18.865393468403354 22.008517011016487 0 0 -1
92 1 11.003971181703132 20.437478435497283 1.5712585590133394 0 0 0
93 1 12.576169665097684 18.865481444653707 22.00878148386565 0 0 -1
94 1 14.148315021262333 20.437515070602135 1.5714725344819584 0 0 0
95 1 15.720610381448102 18.86556204100386 22.009123583822785 0 0 -1
96 1 17.29268403016894 20.437510662924783 1.5717049056345755 0 0 0
97 1 18.864939031864882 18.865515092770757 22.009280132458578 0 0 -1
98 1 20.436905938668396 20.43744139356188 1.5717932695547778 0 0 0
99 1 22.008937724558894 22.00954383539829 3.143789466892834 -1 -1 0
100 1 1.5714215012287909 1.5721889316357156 4.71581680761339 0 0 0
101 1 3.1435549119664894 22.009543835047328 3.143593326540863 0 -1 0
102 1 4.7155537070395495 1.572212489405644 4.7155765121660025 0 0 0
103 1 6.287635736794028 22.00954383498783 3.1433727759326975 0 -1 0
104 1 7.859736525679467 1.5721354241617755 4.715421986025115 0 0 0
105 1 9.43183770142485 22.00954383530949 3.1433303114096716 0 -1 0
106 1 11.00398335155949 1.572083980760923 4.715435508508683 0 0 0
107 1 12.576128071858031 22.009543835249172 3.1434330295156805 0 -1 0
108 1 14.148277267364488 1.5721244123901756 4.715605588853108 0 0 0
109 1 15.720456838895606 22.009543835559352 3.1436476636793014 0 -1 0
110 1 17.29249702984269 1.5722242227779804 4.715855964430639 0 0 0
111 1 18.864698159753647 22.009543835429046 3.143845532733827 0 -1 0
112 1 20.436665720748387 1.5721759480174107 4.715950118311164 0 0 0
113 1 22.00887096029308 3.144277879476814 3.1438590755094706 -1 0 0
114 1 1.5713690558702844 4.716444819637969 4.71584971522702 0 0 0
115 1 3.1436002630744273 3.1443727390321543 3.143663605733431 0 0 0
116 1 4.7158407134441775 4.716736181452176 4.715912767928444 0 0 0
117 1 6.287604113751574 3.144179333435856 3.143293852883117 0 0 0
118 1 7.859713388813034 4.716237621490581 4.715326278380804 0 0 0
119 1 9.43184542323845 3.1441397544546104 3.143238981587305 0 0 0
120 1 11.003977147068879 4.7162182262717876 4.715300051284362 0 0 0
121 1 12.576122363412514 3.144101065204934 3.1434023503798474 0 0 0
122 1 14.148156934676074 4.716280587641801 4.715737782650365 0 0 0
123 1 15.720455092193427 3.1441334454973875 3.143725038096242 0 0 0
124 1 17.291898469905163 4.716840811116388 4.716495928842828 0 0 0
125 1 18.864546289381266 3.144322466940774 3.144048298474915 0 0 0
126 1 20.43639594418006 4.716459550439478 4.716064211072663 0 0 0
127 1 22.008732795647806 6.288476885418858 3.143883676151649 -1 0 0
128 1 1.5711823682253527 7.860646136037441 4.715850124279136 0 0 0
129 1 3.1433780450837547 6.288441761212024 3.1435244518525134 0 0 0
130 1 4.715358533338561 7.860572152516344 4.715503279376948 0 0 0
131 1 6.287225970002051 6.288053771990129 3.1429367960830015 0 0 0
132 1 7.85830362517055 7.859162552925123 4.713890140510548 0 0 0
133 1 9.431827816498014 6.288122583458179 3.1428780559570715 0 0 0
134 1 11.003932654098701 7.86069707733237 4.714678117391864 0 0 0
135 1 12.576117264492149 6.288108586152884 3.1432720102398464 0 0 0
136 1 14.149151644928754 7.859366923473963 4.71504313779295 0 0 0
137 1 15.720663928087136 6.288066644715172 3.1438194917647606 0 0 0
138 1 17.291903856948608 7.8608243992606415 4.716535750452606 0 0 0
139 1 18.8645174136766 6.288467833807229 3.144137791005533 0 0 0
140 1 20.436220848334184 7.860678691591021 4.71618882129231 0 0 0
141 1 22.008636141014485 9.43267846708599 3.1439386393816853 -1 0 0
142 1 1.5710864219527036 11.004770335155916 4.715886337442833 0 0 0
143 1 3.1433460611762145 9.432703229220948 3.1435488848500883 0 0 0
144 1 4.715434558124546 11.004770335014339 4.715593664339663 0 0 0
145 1 6.287283605576855 9.432613725905346 3.142806371253802 0 0 0
146 1 7.859799462942283 11.004770335153735 4.714003897642462 0 0 0
147 1 9.430340605040943 9.431106121469131 3.139700385021151 0 0 0
148 1 11.00382027830072 11.004770335228788 4.698769886418175 0 0 0
149 1 12.577509917428918 9.43114442427212 3.1406130665602796 0 0 0
150 1 14.14729990216171 11.004770335386718 4.716067478235612 0 0 0
151 1 15.720346505113671 9.432703111020027 3.144148262015393 0 0 0
152 1 17.291727045174195 11.004770335377382 4.7165663733280505 0 0 0
153 1 18.864385747791953 9.43269387419113 3.1442546293523765 0 0 0
154 1 20.436139749499592 11.004770335493431 4.71625411923875 0 0 0
155 1 22.008636141046217 12.576862203368714 3.143938640082238 -1 0 0
156 1 1.5711823684057122 14.148894534245638 4.715850125162688 0 0 0
157 1 3.1433460611402895 12.576837440430927 3.143548885396456 0 0 0
158 1 4.715358533346684 14.14896851749474 4.7155032803074475 0 0 0
159 1 6.287283605577494 12.576926943496956 3.142806371847117 0 0 0
160 1 7.858303625139543 14.150378117221733 4.713890141370275 0 0 0
161 1 9.430340604937232 12.578434548192776 3.139700385553845 0 0 0
162 1 11.003932654005284 14.148843593331174 4.7146781180224036 0 0 0
163 1 12.577509917516068 12.578396245901962 3.1406130670149426 0 0 0
164 1 14.149151644802362 14.15017374723824 4.715043138755118 0 0 0
165 1 15.720346505016694 12.576837559382277 3.1441482626605386 0 0 0
166 1 17.291903856637347 14.148716271582229 4.716535751564761 0 0 0
167 1 18.864385747734012 12.576846796629308 3.144254630071136 0 0 0
168 1 20.43622084819818 14.148861979185678 4.716188822500093 0 0 0
169 1 22.008732795800526 15.721063785152266 3.143883677217293 -1 0 0
170 1 1.5713690558076154 17.29309585074702 4.71584971586033 0 0 0
171 1 3.1433780451730264 15.72109890862334 3.1435244528523785 0 0 0
172 1 4.71584071359522 17.292804488798645 4.715912768997251 0 0 0
173 1 6.287225969981747 15.721486897797174 3.142936797358064 0 0 0
174 1 7.859713388856361 17.293303049072055 4.715326279473396 0 0 0
175 1 9.431827816579288 15.721418086578351 3.142878057095142 0 0 0
176 1 11.003977147038619 17.29332244464977 4.715300052353903 0 0 0
177 1 12.576117264444257 15.721432084325306 3.143272011517049 0 0 0
178 1 14.148156934646625 17.29326008334531 4.715737783969391 0 0 0
179 1 15.720663928090666 15.72147402607849 3.143819492988573 0 0 0
180 1 17.29189846945688 17.292699859679935 4.716495929789033 0 0 0
181 1 18.864517413403092 15.721072836935429 3.144137792094712 0 0 0
182 1 20.436395944170325 17.293081120179423 4.716064211710282 0 0 0
183 1 22.008870960198262 18.865262790735166 3.1438590759035163 -1 0 0
184 1 1.571421501304322 20.437351738630156 4.715816807976186 0 0 0
185 1 3.143600263047691 18.86516793081491 3.1436636064244796 0 0 0
186 1 4.715553706917307 20.4373281805539 4.715576512766672 0 0 0
187 1 6.287604113859909 18.865361336336868 3.143293853764465 0 0 0
188 1 7.8597365257466265 20.437405246132332 4.715421986680851 0 0 0
189 1 9.431845423275389 18.86540091590493 3.1432389825781932 0 0 0
190 1 11.003983351623916 20.437456689943392 4.715435509254224 0 0 0
191 1 12.576122363610384 18.86543960528753 3.143402351485409 0 0 0
192 1 14.148277267395702 20.4374162582852 4.715605589702567 0 0 0
193 1 15.720455092288056 18.865407224857954 3.143725039112738 0 0 0
194 1 17.292497029861313 20.437316448017025 4.7158559648841605 0 0 0
195 1 18.86454628939019 18.86521820375779 3.1440482988840506 0 0 0
196 1 20.43666572058062 20.437364722670008 4.715950118584699 0 0 0
197 1 22.008765798042464 22.009543835359253 6.287897509326773 -1 -1 0
198 1 1.5713123533676996 1.5721646307254111 7.859866531286199 0 0 0
199 1 3.1434889959936427 22.00954383516751 6.287772029362854 0 -1 0
200 1 4.715579231740527 1.5722790850127188 7.85975853697759 0 0 0
201 1 6.287506979614926 22.00954383532133 6.287443510368273 0 -1 0
202 1 7.859487742673842 1.5720446114614477 7.85933648063759 0 0 0
203 1 9.431850010810772 22.00954383541391 6.28745296398445 0 -1 0
204 1 11.004081179119286 1.5720174832899394 7.859530031126346 0 0 0
205 1 12.576198068120984 22.00954383552886 6.28751823233348 0 -1 0
206 1 14.148646378840485 1.5720386453073187 7.859437772693372 0 0 0
207 1 15.720554027992135 22.009543835610756 6.287626909888452 0 -1 0
208 1 17.29231014445071 1.5723644013791347 7.860010590355894 0 0 0
209 1 18.86449610151194 22.009543835341226 6.287976122587174 0 -1 0
210 1 20.436511539725903 1.5722060595168004 7.859965312308939 0 0 0
211 1 22.008646736246682 3.1443415173488085 6.287954805862062 -1 0 0
212 1 1.5712210835965528 4.716407702989364 7.85990144934826 0 0 0
213 1 3.1435345818461062 3.1444370725892474 6.2878633627607075 0 0 0
214 1 4.715971893143671 4.716879549751136 7.860061002267113 0 0 0
215 1 6.287598334006117 3.1444239896278066 6.287541232238479 0 0 0
216 1 7.859553959958439 4.716476613696469 7.859172093309107 0 0 0
217 1 9.431949546622308 3.144300342959287 6.287523027219846 0 0 0
218 1 11.004054611758479 4.71667626802072 7.860039484982642 0 0 0
219 1 12.576058412727457 3.1443351596324756 6.287631853140474 0 0 0
220 1 14.148388972012512 4.716651944776901 7.85952876788072 0 0 0
221 1 15.720304612834674 3.14452116530918 6.2878478970388825 0 0 0
222 1 17.291438098908078 4.717224423830378 7.8605794344436735 0 0 0
223 1 18.864238264714082 3.1445187684261096 6.288137634019715 0 0 0
224 1 20.43605903736774 4.716573465526728 7.860115339404159 0 0 0
225 1 22.008339327727573 6.288408725942905 6.287869966475253 -1 0 0
226 1 1.5706592148172114 7.86016487867917 7.859528007270347 0 0 0
227 1 3.143553976502686 6.2885986948438175 6.287826782315925 0 0 0
228 1 4.716022561022092 7.860580947564691 7.859664431879169 0 0 0
229 1 6.288702824412316 6.289549498124909 6.2885752136990085 0 0 0
230 1 7.863362462633234 7.86356468638151 7.861901534855082 0 0 0
231 1 9.432453251287756 6.288463836844704 6.2875567209626855 0 0 0
232 1 11.003771051389473 7.864758648960987 7.863574064869015 0 0 0
233 1 12.575379662242213 6.288656593506067 6.288015660895823 0 0 0
234 1 14.143313987685081 7.864690265103472 7.864116409650019 0 0 0
235 1 15.718521065399658 6.290020266514194 6.289548991174904 0 0 0
236 1 17.290480592264625 7.861087381948242 7.86071731924305 0 0 0
237 1 18.863641485493496 6.288768198055152 6.288358792834069 0 0 0
238 1 20.435625537787793 7.860472785510722 7.860003192981196 0 0 0
239 1 22.00818307578138 9.432712324238848 6.28806808335036 -1 0 0
240 1 1.5706896362450862 11.004770335596906 7.859985756683066 0 0 0
241 1 3.1434468303066234 9.432878518985204 6.287963416859486 0 0 0
242 1 4.716524875950731 11.00477033603425 7.861341564595447 0 0 0
243 1 6.28762141452523 9.4330816684599 6.287669327506807 0 0 0
244 1 7.86395664313956 11.00477033650357 7.861019859680122 0 0 0
245 1 9.426991080722098 9.427652496207862 6.28223051639968 0 0 0
246 1 11.003788675622589 11.004770335782764 7.780815174857265 0 0 0
247 1 12.580175890119154 9.427878817701103 6.284217106052399 0 0 0
248 1 14.140368012856014 11.004770335927187 7.867238284538744 0 0 0
249 1 15.718607029298346 9.433692704758244 6.289579007186747 0 0 0
250 1 17.289651987448778 11.004770335789525 7.861747650294685 0 0 0
251 1 18.86330851126731 9.43293242397932 6.288637716281877 0 0 0
252 1 20.4353838855072 11.004770335623384 7.860296938336694 0 0 0
253 1 22.008183075760968 12.576828346581644 6.288068083770114 -1 0 0
254 1 1.570659214854265 14.149375792720443 7.8595280079075565 0 0 0
255 1 3.1434468303953746 12.576662151835537 6.287963417331927 0 0 0
256 1 4.71602256097519 14.148959724838932 7.859664432878696 0 0 0
257 1 6.287621414547213 12.576459002938757 6.287669327799738 0 0 0
258 1 7.8633624627197065 14.14597598638836 7.861901535880112 0 0 0
259 1 9.426991080428966 12.581888175378813 6.282230516279666 0 0 0
260 1 11.003771050688627 14.144782023510274 7.863574065582657 0 0 0
261 1 12.580175890114662 12.58166185393569 6.284217105865003 0 0 0
262 1 14.143313986677006 14.14485040697519 7.864116410893486 0 0 0
263 1 15.71860702889892 12.575847966533857 6.289579007685123 0 0 0
264 1 17.29048059158425 14.148453289879276 7.860717320187255 0 0 0
265 1 18.863308511074223 12.576608247171826 6.288637716817472 0 0 0
266 1 20.435625537325926 14.14906788580924 7.8600031936650145 0 0 0
267 1 22.008339327645196 15.721131944844796 6.287869967311212 -1 0 0
268 1 1.5712210835145923 17.293132968331886 7.859901450138095 0 0 0
269 1 3.143553976668485 15.720941975861173 6.287826783397052 0 0 0
270 1 4.715971893040971 17.292661122096618 7.860061003715121 0 0 0
271 1 6.288702824424307 15.719991173063685 6.288575214957631 0 0 0
272 1 7.859553959797639 17.293064058751522 7.859172094768913 0 0 0
273 1 9.432453251240563 15.721076834798394 6.2875567219353545 0 0 0
274 1 11.004054611439054 17.292864404393985 7.860039486554866 0 0 0
275 1 12.575379661773178 15.720884077929803 6.2880156623009675 0 0 0
276 1 14.148388971499298 17.29288872728329 7.8595287695979135 0 0 0
277 1 15.718521064807398 15.719520404640924 6.289548992572857 0 0 0
278 1 17.29143809825506 17.292316247734526 7.860579435776112 0 0 0
279 1 18.863641484959057 15.720772472850912 6.2883587940700725 0 0 0
280 1 20.43605903701321 17.292967205623125 7.86011533996991 0 0 0
281 1 22.008646736145582 18.865199153371194 6.287954806098017 -1 0 0
282 1 1.5713123533471685 20.437376040451053 7.859866531482892 0 0 0
283 1 3.143534581837279 18.865103598339783 6.287863363644758 0 0 0
284 1 4.715579231554185 20.437261586634662 7.8597585377074095 0 0 0
285 1 6.2875983339528485 18.86511668138113 6.287541233296493 0 0 0
286 1 7.8594877425997725 20.437496060477116 7.859336481509796 0 0 0
287 1 9.431949546549408 18.865240328445925 6.287523028443872 0 0 0
288 1 11.004081179087306 20.43752318876679 7.859530032078375 0 0 0
289 1 12.576058412700936 18.865205511865963 6.2876318545022105 0 0 0
290 1 14.148646378757503 20.43750202675479 7.859437773599192 0 0 0
291 1 15.720304612605275 18.865019506051045 6.287847898219538 0 0 0
292 1 17.29231014436775 20.437176270160865 7.860010590801593 0 0 0
293 1 18.864238264412897 18.865021902690152 6.288137634471656 0 0 0
294 1 20.436511539455083 20.43733461153601 7.859965312336641 0 0 0
295 1 22.00869179756983 22.009543835899482 9.431912154691043 -1 -1 0
296 1 1.5713111738495822 1.572137620179551 11.003904818504102 0 0 0
297 1 3.1434622947061612 22.009543836098487 9.431837092445758 0 -1 0
298 1 4.715631302963473 1.5722293574742627 11.00383033670956 0 0 0
299 1 6.287562890406539 22.00954383647579 9.431663708219421 0 -1 0
300 1 7.859626761175078 1.5720039277400268 11.003726348304314 0 0 0
301 1 9.431683441587547 22.009543836488845 9.431458964885794 0 -1 0
302 1 11.004289791448182 1.570769328459584 11.00383048885823 0 0 0
303 1 12.576636547966915 22.009543836526635 9.431502938668709 0 -1 0
304 1 14.14859738262985 1.5721737044625148 11.004004203722552 0 0 0
305 1 15.720475800682268 22.009543836327545 9.431905234059462 0 -1 0
306 1 17.292400486624384 1.5722772012689368 11.004004303109888 0 0 0
307 1 18.864449493263187 22.009543835967563 9.43195560106797 0 -1 0
308 1 20.436537726220404 1.5721814646609216 11.00396988216186 0 0 0
309 1 22.008568272619115 3.144301361395048 9.431935609938732 -1 0 0
310 1 1.5711825218646343 4.7163367625101005 11.003900363639971 0 0 0
311 1 3.1434962898108703 3.1443514373095636 9.431856898067398 0 0 0
312 1 4.715901021457434 4.716678616225168 11.00375016161981 0 0 0
313 1 6.28779630371594 3.144637533653998 9.431759278500268 0 0 0
314 1 7.8605318946346 4.7170403446388605 11.003225863167534 0 0 0
315 1 9.43145483728516 3.1432430325154237 9.431173519809672 0 0 0
316 1 11.004981202512386 4.708814069662988 11.003823888660929 0 0 0
317 1 12.577012419646056 3.143190261756231 9.431154814964898 0 0 0
318 1 14.147528962463646 4.7178370989506195 11.004094753385031 0 0 0
319 1 15.720024447808266 3.1449359253070313 9.432160617966778 0 0 0
320 1 17.29170386737184 4.716945955500061 11.004113824284758 0 0 0
321 1 18.864172394150543 3.1445176955826706 9.4320500519525 0 0 0
322 1 20.43615720542212 4.7164573603146485 11.004011141335027 0 0 0
323 1 22.00810644202634 6.28839578259738 9.431935229624107 -1 0 0
324 1 1.5703473442832154 7.860185130673483 11.003859451933762 0 0 0
325 1 3.14356404560573 6.288458044206976 9.43182616939809 0 0 0
326 1 4.715955061258275 7.860996662052944 11.003211947480631 0 0 0
327 1 6.289448964560787 6.290009688400874 9.432696663456369 0 0 0
328 1 7.87014421617956 7.8695226777275735 11.000755105269732 0 0 0
329 1 9.431010854499537 6.287324587966728 9.429788978091699 0 0 0
330 1 11.00659286474517 7.8192107333001015 11.007005411592994 0 0 0
331 1 12.577630809748422 6.287386582446195 9.429926595684625 0 0 0
332 1 14.136165342915483 7.871826145997441 11.003445360024967 0 0 0
333 1 15.717524131070908 6.2909687533297465 9.43377938686655 0 0 0
334 1 17.289471185534367 7.861785147002766 11.004536597458616 0 0 0
335 1 18.863096949613418 6.2889996732385605 9.4324179348385 0 0 0
336 1 20.435437289803755 7.860459339676491 11.004157898314826 0 0 0
337 1 22.007361350989356 9.432279111639946 9.431754787015837 -1 0 0
338 1 1.5674734577212206 11.004770336318167 11.003893480264292 0 0 0
339 1 3.141512719360769 9.431378849463727 9.430846588391097 0 0 0
340 1 4.699740525177732 11.004770337148008 11.004260729851019 0 0 0
341 1 6.289673394355367 9.430957601936685 9.430908368190991 0 0 0
342 1 7.789665594963542 11.004770337423142 11.005899601692086 0 0 0
343 1 9.441663312523914 9.443036177879863 9.440243708729271 0 0 0
344 1 20.437063777584232 20.437515724521568 20.436991567196376 0 0 0
345 1 12.562598422443537 9.442081935621413 9.443692574170601 0 0 0
346 1 14.17507908589553 11.004770335860133 11.013640321607935 0 0 0
347 1 15.716829978436495 9.432823382251591 9.432896801457684 0 0 0
348 1 17.294670204705643 11.004770336445677 11.005530881054682 0 0 0
349 1 18.863152821197662 9.432433728886481 9.432244554189705 0 0 0
350 1 20.435660053340744 11.004770336101638 11.00427839234272 0 0 0
351 1 22.007361350832866 12.577261559982926 9.431754787478944 -1 0 0
352 1 1.570347343823649 14.149355541790769 11.0038594526598 0 0 0
353 1 3.141512719093637 12.5781618232501 9.430846588989027 0 0 0
354 1 4.715955060874884 14.148544011987035 11.003211948770623 0 0 0
355 1 6.289673394008141 12.57858307192002 9.430908368800669 0 0 0
356 1 7.8701442155347126 14.14001799667149 11.000755106282826 0 0 0
357 1 9.441663312017258 12.566504495296204 9.44024371103277 0 0 0
358 1 11.006592863424755 14.190329939963638 11.007005412520984 0 0 0
359 1 12.562598421430907 12.567458736708653 9.443692574952546 0 0 0
360 1 14.136165340693264 14.137714525636039 11.003445361132206 0 0 0
361 1 15.716829977737824 12.576717290006302 9.432896802153666 0 0 0
362 1 17.289471184532633 14.147755525436473 11.004536598236218 0 0 0
363 1 18.86315282078564 12.57710694304888 9.432244554712527 0 0 0
364 1 20.43543728929206 14.149081332262519 11.004157898823186 0 0 0
365 1 22.008106441679477 15.721144889115202 9.431935230092618 -1 0 0
366 1 1.5711825212175765 17.293203910114546 11.003900364343645 0 0 0
367 1 3.143564045411789 15.721082628294406 9.431826170534446 0 0 0
368 1 4.7159010208954495 17.292862057622674 11.00375016340132 0 0 0
369 1 6.289448964273836 15.719530985306664 9.432696664929901 0 0 0
370 1 7.86053189424894 17.292500330002138 11.003225865220275 0 0 0
371 1 9.431010854137078 15.72221608598516 9.429788979524787 0 0 0
372 1 11.00498120205163 17.30072660455651 11.003823890734022 0 0 0
373 1 12.577630808791747 15.722154090690852 9.429926597145068 0 0 0
374 1 14.147528961877631 17.291703574261327 11.004094755189394 0 0 0
375 1 15.717524130031782 15.718571918878673 9.433779388372315 0 0 0
376 1 17.29170386678643 17.292594717354465 11.004113825356825 0 0 0
377 1 18.863096948856157 15.720540998653277 9.432417935570822 0 0 0
378 1 20.436157205030586 17.293083311879297 11.004011141655177 0 0 0
379 1 22.00856827225374 18.865239310060886 9.431935610239965 -1 0 0
380 1 1.5713111737247247 20.437403052361837 11.00390481889795 0 0 0
381 1 3.143496289502923 18.86518923499391 9.431856899127808 0 0 0
382 1 4.715631302763665 20.43731131597489 11.00383033773372 0 0 0
383 1 6.287796303489577 18.864903139356247 9.431759280233212 0 0 0
384 1 7.859626761028057 20.437536746289794 11.003726349577695 0 0 0
385 1 9.431454837074613 18.866297640831696 9.4311735215525 0 0 0
386 1 11.004289791380574 20.438771345563918 11.003830490106612 0 0 0
387 1 12.577012419423362 18.866350411265095 9.431154816784373 0 0 0
388 1 14.148597382488616 20.437366969000124 11.004004204791224 0 0 0
389 1 15.720024447396112 18.864604747078417 9.432160619478898 0 0 0
390 1 17.29240048650864 20.437263471734262 11.004004303680903 0 0 0
391 1 18.86417239382332 18.865022976356947 9.432050052535752 0 0 0
392 1 20.43653772598288 20.437359207790074 11.00396988230277 0 0 0
393 1 22.008775354864678 22.009543836579088 12.575988984846568 -1 -1 0
394 1 1.5714194599653768 1.572095302855011 14.148029513331512 0 0 0
395 1 3.1435033820191443 22.009543836690217 12.575915297919629 0 -1 0
396 1 4.715683824167475 1.5722324691079166 14.14793693478057 0 0 0
397 1 6.287646269853398 22.0095438371539 12.575940091014916 0 -1 0
398 1 7.859453692333873 1.5718350951492666 14.148529836756765 0 0 0
399 1 9.431727760230329 22.009543837344335 12.576296956070209 0 -1 0
400 1 11.004343803170734 1.571721124671328 14.148582289789445 0 0 0
401 1 12.576703142813564 22.00954383717741 12.576407901432137 0 -1 0
402 1 14.148990279772617 1.5716892697829552 14.148773490617371 0 0 0
403 1 15.720659665905853 22.009543836916485 12.576143000967521 0 -1 0
404 1 17.292675190524005 1.572168562856525 14.14820540833271 0 0 0
405 1 18.86459224425526 22.009543836721324 12.576063064476616 0 -1 0
406 1 20.43674543746967 1.5721078370606185 14.14814587208322 0 0 0
407 1 22.008677107595602 3.1442250260844116 12.57600174878098 -1 0 0
408 1 1.5713594327990816 4.716210139905452 14.14804710047 0 0 0
409 1 3.143545602965531 3.1442907796106705 12.575863598980051 0 0 0
410 1 4.715960156892836 4.716575237687003 14.147586039085995 0 0 0
411 1 6.287989126423675 3.144650764822107 12.575671163849954 0 0 0
412 1 7.859069996286946 4.715810840481623 14.1488342347577 0 0 0
413 1 9.43150943017674 3.142078795513422 12.57667192627771 0 0 0
414 1 11.00522134734641 4.715612720937694 14.148600305242292 0 0 0
415 1 12.577207215272477 3.142775469188059 12.576891123812542 0 0 0
416 1 14.149798887135649 4.714932925282931 14.149598826320034 0 0 0
417 1 15.720354232508821 3.1446390757659834 12.575977652853084 0 0 0
418 1 17.292254593394087 4.716603885776559 14.147965969963378 0 0 0
419 1 18.864408805338435 3.144356608629729 12.576051472714951 0 0 0
420 1 20.43649383072271 4.7162456776864925 14.148174381438924 0 0 0
421 1 22.008267243203445 6.288246303225692 12.576095325098509 -1 0 0
422 1 1.570066924801263 7.859644097425117 14.149002047467135 0 0 0
423 1 3.1435488325798624 6.288406751392313 12.57569170137939 0 0 0
424 1 4.713334898529096 7.85850971388514 14.14984610200985 0 0 0
425 1 6.289748741391438 6.289951589929753 12.574053960314677 0 0 0
426 1 7.862245655676881 7.8651872536081635 14.142557813252624 0 0 0
427 1 9.430928580594884 6.280509835261133 12.578651193011591 0 0 0
428 1 11.009342837686681 7.864307324296904 14.144735756098198 0 0 0
429 1 12.579930176238735 6.285750930806413 12.579756720693132 0 0 0
430 1 14.15087235188278 7.8590237731243455 14.15061698582944 0 0 0
431 1 15.71832105039256 6.290469997642003 12.574744940952415 0 0 0
432 1 17.293449814803754 7.859666336248862 14.149591353114024 0 0 0
433 1 18.863654189496447 6.2886467937934505 12.576005455330218 0 0 0
434 1 20.436424683115828 7.86002503019118 14.148853349343915 0 0 0
435 1 22.007216209392666 9.432207608207683 12.576592323912262 -1 0 0
436 1 1.5696793123064052 11.004770336459776 14.148890796188422 0 0 0
437 1 3.139102552361519 9.431096207860167 12.577512860618056 0 0 0
438 1 4.7127987457240526 11.004770337390674 14.148989487822377 0 0 0
439 1 6.277643114376326 9.42692882150898 12.581827805495921 0 0 0
440 1 7.860226541156162 11.004770337717801 14.145348559276817 0 0 0
441 1 9.43736692702684 9.411590454493014 12.588936462953173 0 0 0