LAMMPS data file via write_data, version 2 Aug 2023, timestep = 18, units = metal

690 atoms
3 atom types

0 22.009546999999998 xlo xhi
0 22.009546999999998 ylo yhi
0 22.009546999999998 zlo zhi

Masses

1 183.84
2 1.008
3 4.0026

Atoms # atomic

1 1 0.000297072322487969 22.00933168656637 22.00726398590973 0 -1 -1
2 1 1.5718880731620462 1.57151968294518 1.569682875227075 0 0 0
3 1 3.1436096159733875 22.009399080622526 22.007263895538145 0 -1 -1
4 1 4.715459657152061 1.5715541921749197 1.5695809272982841 0 0 0
5 1 6.28764583200475 0.0001721147239037716 22.007264189051227 0 0 -1
6 1 7.859888453814756 1.5717559492931041 1.5694743586001525 0 0 0
7 1 9.432315070503732 0.00045645509168224446 22.007264482892314 0 0 -1
8 1 11.004807313734903 1.5719240581213234 1.5694215127669964 0 0 0
9 1 12.577287820404937 0.0005166327058550238 22.007264629059943 0 0 -1
10 1 14.149803148822164 1.5718679082472466 1.5694329129371423 0 0 0
11 1 15.722133995002988 0.0003290769829339736 22.007264491433695 0 0 -1
12 1 17.294487174091483 1.5716875313103233 1.5694877802316847 0 0 0
13 1 18.866400684151902 2.0763345322907914e-05 22.007264081994347 0 0 -1
14 1 20.438284468075086 1.5716028115187677 1.5696457214183703 0 0 0
15 1 0.00030435955573541665 3.143586726490922 22.007264320259743 0 0 -1
16 1 1.5717250933853524 4.7156156628756225 1.569511281800593 0 0 0
17 1 3.143374751050636 3.1433606794080786 22.007264273720775 0 0 -1
18 1 4.714816143176874 4.715000024048048 1.5691595739399646 0 0 0
19 1 6.2873466017686805 3.143195162300019 22.007264349807045 0 0 -1
20 1 7.859323732342063 4.7147111662423224 1.5689387466220128 0 0 0
21 1 9.432231798491102 3.143292274162271 22.00726450043044 0 0 -1
22 1 11.004791304534676 4.714829041541197 1.5689118048379036 0 0 0
23 1 12.577388382610662 3.143340632360691 22.007264664512935 0 0 -1
24 1 14.150342549986386 4.714766701112297 1.5688934225744853 0 0 0
25 1 15.722430953307525 3.1432818612083984 22.007264546965654 0 0 -1
26 1 17.295113203503732 4.71502674879893 1.569084753151289 0 0 0
27 1 18.8666555300931 3.1434269322508883 22.007264251578846 0 0 -1
28 1 20.438425913910923 4.715610318526416 1.569485599685316 0 0 0
29 1 0.00027055465708303913 6.288032479105731 22.00726461311495 0 0 -1
30 1 1.5716580127716404 7.860309184093912 1.569526988807005 0 0 0
31 1 3.143174489133736 6.287771343902243 22.00726454973275 0 0 -1
32 1 4.714656451405436 7.859927190353035 1.5690616177531738 0 0 0
33 1 6.286510289717206 6.2868719461630835 22.00726453239242 0 0 -1
34 1 7.858262729740574 7.858748278671685 1.5675913024336683 0 0 0
35 1 9.431719339161669 6.286598041453353 22.00726453694674 0 0 -1
36 1 11.004695883503366 7.858643623073804 1.5669370780100338 0 0 0
37 1 12.57782591748089 6.286645048616817 22.007264529302546 0 0 -1
38 1 14.151270432296512 7.858777539980703 1.567523951454798 0 0 0
39 1 15.723238513289715 6.286878596494077 22.007264569783224 0 0 -1
40 1 17.29535344521692 7.859769840401783 1.5689110575412137 0 0 0
41 1 18.866876673324004 6.2877113082422165 22.007264513527844 0 0 -1
42 1 20.438359996279907 7.860323690398568 1.5695168026855117 0 0 0
43 1 0.00021012316331126202 9.432723329885402 22.00726459135768 0 0 -1
44 1 1.5716276844892882 11.005064213167694 1.5695676190038979 0 0 0
45 1 3.1431310041875222 9.43263476692092 22.007264524567557 0 0 -1
46 1 4.714665582656096 11.005127343312227 1.5690514912028564 0 0 0
47 1 6.286491008817604 9.43238181087913 22.007264593735357 0 0 -1
48 1 7.858418577862899 11.005478312193615 1.5674977884493246 0 0 0
49 1 9.431161224118357 9.431789336261149 22.007264501114484 0 0 -1
50 1 11.00446232161675 11.00554917417049 1.564833182142258 0 0 0
51 1 12.578177938337028 9.431860489909456 22.00726445438216 0 0 -1
52 1 14.151330921081977 11.005312612100008 1.5670197038183986 0 0 0
53 1 15.72339544927548 9.432220621454016 22.007264538368478 0 0 -1
54 1 17.2951997220435 11.005141936712372 1.5690076161854989 0 0 0
55 1 18.86681865404951 9.432630728403346 22.007264525049617 0 0 -1
56 1 20.43827500557128 11.005066793457091 1.5695725257392592 0 0 0
57 1 0.00018336918354454172 12.577350936704772 22.007264590837227 0 0 -1
58 1 1.5716464972735142 14.149620951266922 1.5696726084017458 0 0 0
59 1 3.1431316303662866 12.577507475408275 22.007264539931935 0 0 -1
60 1 4.714650804150642 14.150240095240886 1.5691982509805593 0 0 0
61 1 6.286409401457264 12.578094054014478 22.00726452246865 0 0 -1
62 1 7.858427434592254 14.1515424114192 1.5678630720424889 0 0 0
63 1 9.431161748437557 12.578857985130586 22.007264467809403 0 0 -1
64 1 11.004465824803308 14.151843354299336 1.5672378965787346 0 0 0
65 1 12.578211685898925 12.578887623635664 22.00726450779716 0 0 -1
66 1 14.151310890863687 14.151825859664198 1.5674458331899652 0 0 0
67 1 15.72340697364981 12.57815887933617 22.007264497996637 0 0 -1
68 1 17.295235458415775 14.150326745979486 1.5691380817014968 0 0 0
69 1 18.86676899563771 12.577521485571426 22.007264446223036 0 0 -1
70 1 20.438256107324953 14.149627085660189 1.5696741443421574 0 0 0
71 1 0.0002063113999939661 15.721710014533835 22.00726414280479 0 0 -1
72 1 1.5717322115055201 17.29380290382309 1.5697782873640225 0 0 0
73 1 3.143179262543606 15.722059554855338 22.00726408568754 0 0 -1
74 1 4.714896622633379 17.294688743505493 1.5693663325002967 0 0 0
75 1 6.286623245300495 15.723155385912568 22.007264303079722 0 0 -1
76 1 7.85931072376675 17.295502192069858 1.5689720042627995 0 0 0
77 1 9.431697394713709 15.723790514001164 22.007264436736875 0 0 -1
78 1 11.004724286735588 17.295782412880673 1.5687708246223282 0 0 0
79 1 12.577640718173592 15.723766682454658 22.00726447141018 0 0 -1
80 1 14.150221742360026 17.295604674694754 1.5688651514018908 0 0 0
81 1 15.72325054447273 15.723413365861715 22.007264418075636 0 0 -1
82 1 17.29510383963467 17.29494053942433 1.5691838398391997 0 0 0
83 1 18.86674548945044 15.722122426717462 22.007264217129308 0 0 -1
84 1 20.438265952038194 17.293844304235378 1.569769002575815 0 0 0
85 1 0.00024359056324087838 18.86568455030271 22.007264183631882 0 0 -1
86 1 1.5718684777036493 20.437556276589813 1.569776881959876 0 0 0
87 1 3.143382160719164 18.86606219560185 22.00726400561132 0 0 -1
88 1 4.715450123579323 20.43798073859476 1.569641136296461 0 0 0
89 1 6.287333744712725 18.86671557327333 22.00726427912235 0 0 -1
90 1 7.859829278296773 20.43849775828749 1.5694528044531948 0 0 0
91 1 9.43215635042196 18.8671498482283 22.007264598164053 0 0 -1
92 1 11.004773698158123 20.43873699234471 1.569361239573592 0 0 0
93 1 12.577374208913529 18.867206327267223 22.00726462292149 0 0 -1
94 1 14.149826472651739 20.43862769425589 1.5693860016919499 0 0 0
95 1 15.722406575184664 18.866877365888293 22.007264574000562 0 0 -1
96 1 17.294502452107547 20.438215820607592 1.569492384129969 0 0 0
97 1 18.866632378436478 18.866223429637976 22.00726428493454 0 0 -1
98 1 20.43825586481164 20.437650731865478 1.5697445083637054 0 0 0
99 1 0.0003887700402874809 22.009163523815367 3.1418722075980097 0 -1 0
100 1 1.5720626434508347 1.5712459753956944 4.71382190948023 0 0 0
101 1 3.143691493414776 22.009303543958538 3.1417560428061453 0 -1 0
102 1 4.715534630458465 1.5713724964698217 4.713528174837024 0 0 0
103 1 6.287637920226451 0.00018450227312444232 3.14148735943782 0 0 0
104 1 7.859912082086508 1.5717708825616448 4.713238425851089 0 0 0
105 1 9.432328470827569 0.0005856200711701797 3.141284815727448 0 0 0
106 1 11.004842126896287 1.572113485172793 4.713084603208213 0 0 0
107 1 12.577325015801607 0.0006761330503154597 3.1412219641878414 0 0 0
108 1 14.149940855434297 1.5719244184912466 4.713072670058169 0 0 0
109 1 15.7222514633813 0.0003956592664492494 3.1413004044312394 0 0 0
110 1 17.294774221112768 1.5715752367182894 4.713237688007511 0 0 0
111 1 18.86657361752363 22.009514565672628 3.1415651111992338 0 -1 0
112 1 20.43842535272671 1.5713348132192957 4.713705866605867 0 0 0
113 1 0.00037235118235752794 3.143340739839684 3.1415186948033447 0 0 0
114 1 1.5716647598774973 4.715126571539194 4.713217038775438 0 0 0
115 1 3.143385224225956 3.143157906914698 3.1413527768784753 0 0 0
116 1 4.7144290630124095 4.714421428253143 4.712367522818149 0 0 0
117 1 6.287300197589523 3.14302680989172 3.141071706282441 0 0 0
118 1 7.859009255782024 4.714152482512025 4.711870039148773 0 0 0
119 1 9.432250379378933 3.1432580417980582 3.140954744554015 0 0 0
120 1 11.004773730116908 4.714685988433356 4.711938669788033 0 0 0
121 1 12.577405087727879 3.1433113097076615 3.1409057335159187 0 0 0
122 1 14.150762497406493 4.714117901864256 4.711643318599091 0 0 0
123 1 15.722576539428866 3.143103981808709 3.140922826903199 0 0 0
124 1 17.295770361084653 4.714347652304925 4.712108311093121 0 0 0
125 1 18.866825149175476 3.143235901141859 3.1412219758351627 0 0 0
126 1 20.438699682435306 4.715124020803765 4.713129799639584 0 0 0
127 1 0.0003073152117866056 6.287905964533045 3.141409479898017 0 0 0
128 1 1.5715703669566734 7.8601906500574446 4.71326299716245 0 0 0
129 1 3.143004991446361 6.28758869162884 3.1410256808201633 0 0 0
130 1 4.714071014073788 7.8596295720983615 4.711937069193053 0 0 0
131 1 6.285892853243556 6.286268835166743 3.13942395958261 0 0 0
132 1 7.855999780881786 7.856689323148505 4.7068930478064575 0 0 0
133 1 9.431363455450898 6.28603783469258 3.138746050274048 0 0 0
134 1 11.004487052831022 7.856799779745766 4.704452108922891 0 0 0
135 1 12.578129683521608 6.286104607942898 3.1386718038926276 0 0 0
136 1 14.153433429984977 7.8565553139786575 4.7065794420141565 0 0 0
137 1 15.723906284700321 6.286204623354731 3.1392542936867125 0 0 0
138 1 17.296095940994707 7.85931749788865 4.7114933214490415 0 0 0
139 1 18.867136220684923 6.287514232508053 3.1408784913190035 0 0 0
140 1 20.438498103982848 7.860198583375386 4.713227033426173 0 0 0
141 1 0.00018794146059583375 9.432710620281666 3.141501229238804 0 0 0
142 1 1.571575899542464 11.00501376712097 4.713434679601045 0 0 0
143 1 3.1430423168158597 9.432622239578615 3.141076531844506 0 0 0
144 1 4.714489093003907 11.005110824684433 4.712098482422493 0 0 0
145 1 6.28620519407013 9.432348864251757 3.1393532750563815 0 0 0
146 1 7.857662494503514 11.006272542016433 4.707043575534178 0 0 0
147 1 9.430217184243142 9.43095191361671 3.1336067567613948 0 0 0
148 1 11.00361005629877 11.006556722654182 4.692643171835378 0 0 0
149 1 12.578810125070234 9.431147920210874 3.1334165228898145 0 0 0
150 1 14.152468327070476 11.005360947369242 4.7050027367683676 0 0 0
151 1 15.72381905515833 9.43196214290237 3.1387499812478143 0 0 0
152 1 17.295108791465463 11.005236563263216 4.712140670221246 0 0 0
153 1 18.866857903379728 9.432655074892045 3.1410673055172165 0 0 0
154 1 20.438159706977174 11.00505053301076 4.713466586258191 0 0 0
155 1 0.00014021436764101512 12.57730258648217 3.1416599336779143 0 0 0
156 1 1.5716535593615053 14.1494786639421 4.713760718620079 0 0 0
157 1 3.143084859243802 12.577471919370053 3.141248208365506 0 0 0
158 1 4.714506209581893 14.150222491982948 4.712673768206718 0 0 0
159 1 6.286016519477668 12.578284268741044 3.1393884282696227 0 0 0
160 1 7.856803370291552 14.153444218575993 4.707815117100046 0 0 0
161 1 9.430204516517946 12.57998595498539 3.135259694528943 0 0 0
162 1 11.003592840661842 14.153694275405979 4.705918293073144 0 0 0
163 1 12.578981411270838 12.580037322541877 3.1332661689662826 0 0 0
164 1 14.153309083643986 14.154642497045765 4.7061945934039295 0 0 0
165 1 15.723689915757133 12.578418719839691 3.1390947049613196 0 0 0
166 1 17.295218652439296 14.150306412487456 4.712684709495879 0 0 0
167 1 18.866708559435637 12.57749982716044 3.1412515168489166 0 0 0
168 1 20.438127965910116 14.149469638372556 4.713771350211366 0 0 0
169 1 0.00019465833460664803 15.721611475248526 3.141866569049764 0 0 0
170 1 1.5718397640633115 17.293516821431528 4.714097338128367 0 0 0
171 1 3.143178927615845 15.722003406277064 3.1415604765336536 0 0 0
172 1 4.714684351030006 17.29486542353064 4.713009177272086 0 0 0
173 1 6.286160892643828 15.723651997335923 3.1398456733600786 0 0 0
174 1 7.859008279496174 17.296258415399056 4.71187691255424 0 0 0
175 1 9.431415349210486 15.72457494861514 3.138805863816314 0 0 0
176 1 11.004623222071476 17.296890979624497 4.711161784936239 0 0 0
177 1 12.577691810341754 15.724465628560507 3.138717830271699 0 0 0
178 1 14.150661146189224 17.29679230931155 4.71128626157811 0 0 0
179 1 15.72387644412113 15.724152190344466 3.1392865377183927 0 0 0
180 1 17.295620132986997 17.295354113711447 4.712496051607297 0 0 0
181 1 18.866765396174706 15.72204364379571 3.1415277044507297 0 0 0
182 1 20.438263599217244 17.293545055684916 4.7140525273242995 0 0 0
183 1 0.0002933031226508331 18.865529799311958 3.141964134322312 0 0 0
184 1 1.5721271180572216 20.437187308175975 4.714161061424122 0 0 0
185 1 3.1434229832754155 18.86597412648114 3.1417189988102745 0 0 0
186 1 4.71555616626202 20.437864414784276 4.71372394190378 0 0 0
187 1 6.2872671262059585 18.866844691643596 3.1412031694655136 0 0 0
188 1 7.859791439673288 20.438764992571365 4.713157338197982 0 0 0
189 1 9.43211425240729 18.86748588919426 3.1407364176860986 0 0 0
190 1 11.004807843731712 20.439253045369558 4.712862641394908 0 0 0
191 1 12.57741344732015 18.867587836498792 3.1406370268016146 0 0 0
192 1 14.15001269373792 20.439098510223904 4.712893008707331 0 0 0
193 1 15.722632427822509 18.867197974260154 3.140832275875794 0 0 0
194 1 17.294917841621185 20.438421330047362 4.713210490267869 0 0 0
195 1 18.866773250340252 18.866197918990633 3.141503437515336 0 0 0
196 1 20.438373929257132 20.437336529761467 4.714000788686204 0 0 0
197 1 0.000590269048347266 22.008836783245062 6.286169956673035 0 -1 0
198 1 1.5722881709367533 1.5710236381004274 7.858161776816584 0 0 0
199 1 3.1440000022614765 22.008898027912483 6.286118531554093 0 -1 0
200 1 4.7157960510122985 1.571082777445019 7.857995775257225 0 0 0
201 1 6.287718213335006 9.663318267597044e-05 6.285623206224598 0 0 0
202 1 7.859862157208642 1.5717319609871074 7.857497211201632 0 0 0
203 1 9.432339064859113 0.0009469810205049124 6.285251531944962 0 0 0
204 1 11.004912290375461 1.5724606701684989 7.85739895296464 0 0 0
205 1 12.577441560195364 0.0011784687885484995 6.285130926804484 0 0 0
206 1 14.150436337205088 1.5719831107089839 7.857199602373444 0 0 0
207 1 15.722728330640802 0.0006951819624777348 6.285146210533203 0 0 0
208 1 17.29493652012996 1.5713714668871483 7.8577000643435255 0 0 0
209 1 18.866682699198762 22.00922298597064 6.285836888802684 0 -1 0
210 1 20.438526144373014 1.571125982031306 7.858079147373472 0 0 0
211 1 0.0005334665699606983 3.143045388598687 6.285737294505689 0 0 0
212 1 1.5718049515794057 4.714859192497283 7.857698001106092 0 0 0
213 1 3.1435519997778294 3.1428550185076904 6.285566757089274 0 0 0
214 1 4.714569386861964 4.714097468374454 7.857038864419376 0 0 0
215 1 6.287314711735588 3.1427498475532483 6.285103956838989 0 0 0
216 1 7.858996405813678 4.713771336746387 7.856554314311277 0 0 0
217 1 9.432284178751209 3.143299416567449 6.284843426529021 0 0 0
218 1 11.004802986463824 4.714726730328329 7.85681704001619 0 0 0
219 1 12.577482719686802 3.1433142483085303 6.284737782739387 0 0 0
220 1 14.151500214500247 4.712957583523559 7.855860628296583 0 0 0
221 1 15.72303363394409 3.1426825401005543 6.2847107119988035 0 0 0
222 1 17.296085723841546 4.713827363809578 7.856707523070345 0 0 0
223 1 18.867024487980924 3.1428933254063773 6.285344945876006 0 0 0
224 1 20.438828354042183 4.7148262552379565 7.8576131808035 0 0 0
225 1 0.00041976503673459345 6.287263337631986 6.285166130681936 0 0 0
226 1 1.5709384639117765 7.859375690721658 7.857141333685015 0 0 0
227 1 3.1422133438442374 6.2866361598037 6.284449146398475 0 0 0
228 1 4.7110705615166015 7.85743060142383 7.854789287860224 0 0 0
229 1 6.284065029818773 6.284526967763733 6.2817688364652335 0 0 0
230 1 7.848386950420617 7.851703881580951 7.847815446813324 0 0 0
231 1 9.430130247873716 6.284988927002355 6.281148280034883 0 0 0
232 1 11.004069460356757 7.852406952718084 7.842471798535876 0 0 0
233 1 12.579226256287326 6.284895404877026 6.280833622188882 0 0 0
234 1 14.161336562961631 7.850072707296024 7.846953557504322 0 0 0
235 1 15.726092206408328 6.284055261944597 6.281279646689183 0 0 0
236 1 17.299371941156522 7.856804550662779 7.854221193746494 0 0 0
237 1 18.86816565372976 6.286498832751045 6.284213253759151 0 0 0
238 1 20.439346026896327 7.859281132379739 7.857038764525527 0 0 0
239 1 0.00014901038117369088 9.432645001541598 6.285537764072916 0 0 0
240 1 1.5715435743326107 11.00493544067017 7.857696725010849 0 0 0
241 1 3.142862754528508 9.432602006980122 6.28493326757813 0 0 0
242 1 4.714754370053774 11.005210832677045 7.856534798252006 0 0 0
243 1 6.285491239745188 9.432368863319544 6.281878847008953 0 0 0
244 1 7.859424347851488 11.008369073882337 7.848803600833975 0 0 0
245 1 9.426388160133348 9.426915463605889 6.262717645226101 0 0 0
246 1 11.001745361949201 11.01047187122185 7.77834775055136 0 0 0
247 1 12.581669319914289 9.427108790740204 6.261749419925252 0 0 0
248 1 14.15141843305445 11.003846540545371 7.844738993818504 0 0 0
249 1 15.72482931663197 9.431196701973292 6.280587892929101 0 0 0
250 1 17.2942239683953 11.005423412545161 7.856857134283684 0 0 0
251 1 18.866958309875674 9.43265415105049 6.284931582634381 0 0 0
252 1 20.437933357724344 11.004985995788877 7.85774562879286 0 0 0
253 1 1.6233235089000982e-05 12.577186475745146 6.285832753651994 0 0 0
254 1 1.5719622047058301 14.149126473592279 7.858131041050147 0 0 0
255 1 3.1431740207076357 12.577307721303988 6.2851890496855365 0 0 0
256 1 4.715463149189859 14.149109233733306 7.8577751680298125 0 0 0
257 1 6.285693531321532 12.57832401219286 6.282334047866861 0 0 0
258 1 7.852118146499781 14.158856905886854 7.847213507139324 0 0 0
259 1 9.425788236975436 12.58553754164811 6.2723840016101855 0 0 0
260 1 11.000366063815456 14.157776298429793 7.845612238447059 0 0 0
261 1 12.582608672203166 12.58551338680056 6.261210718316237 0 0 0
262 1 14.15804014244548 14.164488613479737 7.845417449113054 0 0 0
263 1 15.723039703963476 12.578756537516579 6.282349790479187 0 0 0
264 1 17.29333397224536 14.148707605121352 7.858442132493973 0 0 0
265 1 18.866209517988327 12.577356480845335 6.2852794544547015 0 0 0
266 1 20.437555106902135 14.149039405680304 7.85819174932945 0 0 0
267 1 0.0001776093837205177 15.72121368286627 6.286275952837471 0 0 0
268 1 1.572467755043026 17.292788786671846 7.858670312115092 0 0 0
269 1 3.143462645695518 15.72153674881155 6.286003497935855 0 0 0
270 1 4.716369763341799 17.2931244346653 7.858566065662156 0 0 0
271 1 6.2849501981776665 15.724987862900692 6.282593111301918 0 0 0
272 1 7.859364612237933 17.296679003774265 7.856471302417374 0 0 0
273 1 9.43067692730444 15.726828928382004 6.280680356514465 0 0 0
274 1 11.00420391294284 17.299298283120656 7.855169511825003 0 0 0
275 1 12.577657731087045 15.727165683670886 6.280218559360386 0 0 0
276 1 14.15305234478415 17.301063497272583 7.853803670490047 0 0 0
277 1 15.725578626670623 15.726349333682867 6.281446444400182 0 0 0
278 1 17.295001560486845 17.294334384334086 7.857712101490319 0 0 0
279 1 18.86640652326518 15.721466861207572 6.286085436057406 0 0 0
280 1 20.43816030897123 17.292977173905992 7.858537142402039 0 0 0
281 1 0.0005338701745885304 18.86506288985494 6.286407293616622 0 0 0
282 1 1.5724697765263729 20.43675461874249 7.858456457235373 0 0 0
283 1 3.1440400628072545 18.865244680044174 6.286365563552565 0 0 0
284 1 4.716142724922316 20.437131836822473 7.858346673765362 0 0 0
285 1 6.287398044085253 18.866880957039168 6.285369846265113 0 0 0
286 1 7.859778319904636 20.438911779009235 7.857420315377427 0 0 0
287 1 9.431989501185528 18.868418577682522 6.284252533865294 0 0 0
288 1 11.004821008242542 20.440276661373247 7.857098189473286 0 0 0
289 1 12.577522098630803 18.868840405645983 6.284133309813157 0 0 0
290 1 14.1508302985826 20.440483672189483 7.856799933132634 0 0 0
291 1 15.723622276544633 18.868406739266035 6.2841522274570805 0 0 0
292 1 17.294905828515628 20.438063477632287 7.857825615197085 0 0 0
293 1 18.8667240626207 18.865713166584314 6.285959366447937 0 0 0
294 1 20.438430769597204 20.436986564936163 7.858328950890147 0 0 0
295 1 0.000708937138510311 22.008652955621532 9.430398715275055 0 -1 0
296 1 1.5723863167373329 1.5709527861960377 11.002490626460379 0 0 0
297 1 3.1442892880036015 22.008653334848944 9.430401619730073 0 -1 0
298 1 4.715954557154801 1.5710058116681642 11.002490767242207 0 0 0
299 1 6.2881099636410065 22.009204662962038 9.430280818759284 0 -1 0
300 1 7.860158098633745 1.5716507292260755 11.002491043588854 0 0 0
301 1 9.432246809851003 0.0012561925536901336 9.42974517507885 0 0 0
302 1 11.004971701274512 1.5720064108411023 11.002491028847983 0 0 0
303 1 12.577875967966543 0.002039901140623146 9.429668853284559 0 0 0
304 1 14.150409077778155 1.5720536997096128 11.002491121233204 0 0 0
305 1 15.722794164708892 0.0006113725473145429 9.43000120141637 0 0 0
306 1 17.294952386383596 1.5713274621563478 11.00249096351567 0 0 0
307 1 18.86671520264129 22.00904391896784 9.43027272326841 0 -1 0
308 1 20.438565262138 1.571057328013641 11.002490693264255 0 0 0
309 1 0.0006332519192014359 3.142910372474199 9.430223249592103 0 0 0
310 1 1.571892970708675 4.71479986802154 11.002490833217076 0 0 0
311 1 3.143779424241335 3.1427755053956363 9.430178105687084 0 0 0
312 1 4.714850988212385 4.714203332164497 11.002491032921258 0 0 0
313 1 6.287477465196787 3.142630888292819 9.429992320597776 0 0 0
314 1 7.8595725855279355 4.713636530332616 11.002491278380791 0 0 0
315 1 9.431982651582834 3.142929644856475 9.42934704034961 0 0 0
316 1 11.005215585930674 4.708800205566196 11.002491030538186 0 0 0
317 1 12.578231524921152 3.1425720389807608 9.42920622339332 0 0 0
318 1 14.151147286104907 4.7127785553666826 11.002491142842796 0 0 0
319 1 15.723197124848658 3.142528714857186 9.429788118484458 0 0 0
320 1 17.29593225324683 4.713905490942241 11.00249137291869 0 0 0
321 1 18.867043778372416 3.142807099136989 9.43008111079325 0 0 0
322 1 20.43883914978264 4.714764974739991 11.002491132161516 0 0 0
323 1 0.0004956620668333214 6.287048731979551 9.429978137587552 0 0 0
324 1 1.5709926328504564 7.859289777645619 11.002490727845826 0 0 0
325 1 3.142378860334442 6.286481242896077 9.429739670434737 0 0 0
326 1 4.71152648440859 7.85773311750459 11.002490965367016 0 0 0
327 1 6.284260439939918 6.284274602020881 9.428518439061039 0 0 0
328 1 7.849967411672132 7.850124358392811 11.002491082148634 0 0 0
329 1 9.430124337070104 6.285878251813904 9.428799349765018 0 0 0
330 1 11.009100375031316 7.8156422410135855 11.002490946092594 0 0 0
331 1 12.580918485482998 6.283263625690186 9.427391894454582 0 0 0
332 1 14.161224578418523 7.847780955574171 11.0024909289045 0 0 0
333 1 15.726522024829098 6.283194460468543 9.428079675387199 0 0 0
334 1 17.299148100436806 7.8569469234885 11.002491111222039 0 0 0
335 1 18.868225645143415 6.286250371837796 9.429600509640771 0 0 0
336 1 20.43936835603591 7.859180546160552 11.002491079874641 0 0 0
337 1 0.00021629659161586358 9.43208523837323 9.429842294713643 0 0 0
338 1 1.5705079430097089 11.004776341040133 11.002490742309112 0 0 0
339 1 3.140529185601651 9.431261958494115 9.429042961735142 0 0 0
340 1 4.707076463847538 11.003864939051228 11.002490918498118 0 0 0
341 1 6.2763156837896155 9.426800620646986 9.424096020990413 0 0 0
342 1 7.818068473127921 11.004769772110578 11.0024909082682 0 0 0
343 1 9.400610324327836 9.386419226596878 9.368241372267294 0 0 0
344 1 20.438255637946433 20.437650855006233 20.43523670133951 0 0 0
345 1 12.608794466047318 9.385662285000413 9.365131138222628 0 0 0
346 1 14.195694446130972 10.995073692763057 11.002491064568748 0 0 0
347 1 15.734695704931339 9.424329817284015 9.42290551275673 0 0 0
348 1 17.302925713331927 11.003078810879959 11.002491099159034 0 0 0
349 1 18.86961856595521 9.430943981918565 9.428862872398668 0 0 0
350 1 20.43908956818858 11.004781327542776 11.002491004558497 0 0 0
351 1 22.00946024286314 12.577048893744504 9.430048098820413 -1 0 0
352 1 1.5727694261310368 14.148397082271819 11.002490867365129 0 0 0
353 1 3.143950893693323 12.577034749302841 9.429487930833533 0 0 0
354 1 4.719274605038402 14.146203067271026 11.002490947372818 0 0 0
355 1 6.292672710136209 12.574403983804622 9.428065990722704 0 0 0
356 1 7.866142626103477 14.14490646087637 11.002491038019555 0 0 0
357 1 9.400822275153937 12.617277046748168 9.397012188265188 0 0 0
358 1 11.00152679924158 14.2167756958493 11.002490855521744 0 0 0
359 1 12.617775431849637 12.626085860956614 9.362628788784933 0 0 0
360 1 14.151271921654791 14.155470283180149 11.002491104765262 0 0 0
361 1 15.71220280617066 12.573058789974535 9.43106821302853 0 0 0
362 1 17.29100772528155 14.146411743012242 11.002491118173799 0 0 0
363 1 18.864821936559917 12.57694152823598 9.429536328506975 0 0 0
364 1 20.436968626787973 14.148299982899983 11.002490886324228 0 0 0
365 1 0.00034187655902595185 15.720575208399378 9.430641868624896 0 0 0
366 1 1.572731012304099 17.2925025020759 11.002490870590007 0 0 0
367 1 3.145112674889628 15.72036706624922 9.430870275213993 0 0 0
368 1 4.7173180736611116 17.29223277704286 11.002490945378867 0 0 0
369 1 6.289940426008157 15.720108596774708 9.430906849660435 0 0 0
370 1 7.862282896513844 17.293262695374313 11.00249104966362 0 0 0
371 1 9.432499650169504 15.725014748907325 9.425618171553442 0 0 0
372 1 11.00504796369221 17.311500625596338 11.00249095060782 0 0 0
373 1 12.583124682616429 15.741086053793468 9.422237758739328 0 0 0
374 1 14.151896387377443 17.299696512276775 11.00249097145585 0 0 0
375 1 15.723105513331271 15.723682314141131 9.429600973930825 0 0 0
376 1 17.294547135070747 17.293754762662715 11.002490866436283 0 0 0
377 1 18.865545787503727 15.720705404808587 9.430712841973218 0 0 0
378 1 20.438120780490426 17.292738298328768 11.002490807452634 0 0 0
379 1 0.0006764965125815914 18.86470182771106 9.4305358604168 0 0 0
380 1 1.5725874129537152 20.436611411241714 11.002490970145347 0 0 0
381 1 3.144633716999281 18.86462980931155 9.430621889712159 0 0 0
382 1 4.716406799256927 20.436858249781658 11.002490850393823 0 0 0
383 1 6.2885082023375425 18.865300448847055 9.430566168192074 0 0 0
384 1 7.860381275059547 20.438133409975475 11.002490920071464 0 0 0
385 1 9.431678106080955 18.869380406991798 9.428708965288859 0 0 0
386 1 11.004865429824468 20.44248136500798 11.002490760746355 0 0 0
387 1 12.57897021067861 18.872888151349766 9.428467793776763 0 0 0
388 1 14.150772267433902 20.440446080734695 11.002490794736497 0 0 0
389 1 15.723265234859053 18.867746121946368 9.429792775407149 0 0 0
390 1 17.294842319732208 20.43788312865951 11.002490767075393 0 0 0
391 1 18.866534647285615 18.86528588200671 9.430390503238655 0 0 0
392 1 20.438441863217466 20.436852689261727 11.002490773210354 0 0 0
393 1 0.000709048538054936 22.00865268985105 12.574582790306087 0 -1 0
394 1 1.5722882736514432 1.5710234118397364 14.146819812268369 0 0 0
395 1 3.144289168104757 22.008653142796227 12.57458004027457 0 -1 0
396 1 4.7157959786020545 1.5710827176429898 14.14698610670523 0 0 0
397 1 6.288110087086181 22.009204515147758 12.574700985510145 0 -1 0
398 1 7.8598622635831354 1.5717318974955645 14.147484641517842 0 0 0
399 1 9.432246758987803 0.0012560299657054103 12.575236607393698 0 0 0
400 1 11.004912381603527 1.5724606666741456 14.147583260378294 0 0 0
401 1 12.577876042980565 0.002039850586106089 12.57531304205037 0 0 0
402 1 14.150436208416936 1.57198309845514 14.147782493337925 0 0 0
403 1 15.722794093406923 0.0006112179139881585 12.574980499558766 0 0 0
404 1 17.294936543958887 1.5713712820964552 14.147281864681437 0 0 0
405 1 18.866715208187465 22.009043680817392 12.574708863473488 0 -1 0
406 1 20.43852622292209 1.5711258074537469 14.146902557601702 0 0 0
407 1 0.0006334090688591096 3.1429104180430723 12.574758248424912 0 0 0
408 1 1.571805065212385 4.714859115885314 14.147283278390589 0 0 0
409 1 3.1437793632966913 3.142775595411525 12.57480347427663 0 0 0
410 1 4.714569332693208 4.714097609066296 14.14794298171625 0 0 0
411 1 6.287477634185388 3.1426310785211924 12.574989787188146 0 0 0
412 1 7.858996485119515 4.713771520858732 14.148427839990234 0 0 0
413 1 9.431982669233058 3.1429298871395086 12.575635179460322 0 0 0
414 1 11.004803035487273 4.714727016956648 14.148165105081253 0 0 0
415 1 12.578231577478473 3.1425722648115078 12.575776107351635 0 0 0
416 1 14.151500109274028 4.712957910285237 14.149121596433902 0 0 0
417 1 15.723196974839478 3.1425289371451672 12.575194290878029 0 0 0
418 1 17.296085615074848 4.713827468544016 14.148274797134896 0 0 0
419 1 18.867043779922003 3.142807181271471 12.574901011806595 0 0 0
420 1 20.43882847472664 4.714826214853652 14.147368517040888 0 0 0
421 1 0.0004957662166339578 6.287048565746992 12.575003591229477 0 0 0
422 1 1.5709385839439562 7.859375762575931 14.147840392239807 0 0 0
423 1 3.1423787922319426 6.286481131886877 12.575241988807967 0 0 0
424 1 4.711070534258581 7.8574307007487985 14.15019291415094 0 0 0
425 1 6.284260533735598 6.2842746019702425 12.57646390088874 0 0 0
426 1 7.848386973688479 7.851703990577092 14.157167014779668 0 0 0
427 1 9.43012434802071 6.285878216153843 12.576182823714626 0 0 0
428 1 11.004069561321732 7.852406949270623 14.162510459841746 0 0 0
429 1 12.580918520126811 6.283263609837533 12.577590020693952 0 0 0
430 1 14.161336625906115 7.850072861909555 14.15802865225647 0 0 0
431 1 15.726521888869849 6.2831945949088785 12.576902621902574 0 0 0
432 1 17.299371915269493 7.856804641420977 14.150761390948874 0 0 0
433 1 18.868225536472803 6.286250340648281 12.575381991524022 0 0 0
434 1 20.439346150700814 7.859281129028625 14.147943537701666 0 0 0
435 1 0.00021639279247562433 9.432085261664955 12.575139489016017 0 0 0
436 1 1.571543705925498 11.004935330693696 14.14728473879521 0 0 0
437 1 3.1405291780131717 9.431261994727034 12.575938729821228 0 0 0
438 1 4.714754482538411 11.005210608283353 14.148447100482002 0 0 0
439 1 6.276315818535634 9.426800653778129 12.58088616198444 0 0 0