LAMMPS data file via write_data, version 2 Aug 2023, timestep = 20, units = metal

689 atoms
3 atom types

0 22.009546999999998 xlo xhi
0 22.009546999999998 ylo yhi
0 22.009546999999998 zlo zhi

Masses

1 183.84
2 1.008
3 4.0026

Atoms # atomic

1 1 0.0006526215373567996 22.008999661789787 22.00954354238764 0 -1 -1
2 1 1.572881639345904 1.5715792016747512 1.5721324120784372 0 0 0
3 1 3.1448524248178846 22.00912481612726 22.00954333849625 0 -1 -1
4 1 4.717143496238919 1.571569054879236 1.5720210945417734 0 0 0
5 1 6.289381678939266 22.009224779131806 22.009542899148244 0 -1 -1
6 1 7.8617221077297215 1.5716611383500672 1.57204411545819 0 0 0
7 1 9.433891597406001 22.009217923971242 22.009542707591308 0 -1 -1
8 1 11.006146583807087 1.5716759741284294 1.5721040352621234 0 0 0
9 1 12.57820831933421 22.00913057913837 22.00954281860123 0 -1 -1
10 1 14.150315977541842 1.57166190467428 1.5721553713272087 0 0 0
11 1 15.722293298489317 22.009022254373352 22.009543111274247 0 -1 -1
12 1 17.294263164866134 1.5716362188980268 1.5722095936574714 0 0 0
13 1 18.866171266641672 22.0089601868865 22.00954350504089 0 -1 -1
14 1 20.438234064450807 1.57157874778356 1.5721895971560085 0 0 0
15 1 0.0007750877188486827 3.143615533838873 22.009543427685134 0 0 -1
16 1 1.5728704869913332 4.71568478306503 1.5720743431304147 0 0 0
17 1 3.1449620372155507 3.1435945782425554 22.00954325705684 0 0 -1
18 1 4.717036456749916 4.7155309295916785 1.5720650979183843 0 0 0
19 1 6.289351130621882 3.1435456120590635 22.00954298395956 0 0 -1
20 1 7.86157515215104 4.715494083587522 1.5719629500072259 0 0 0
21 1 9.433958298057151 3.1436565128038736 22.00954295050748 0 0 -1
22 1 11.006192730970774 4.715710852570586 1.5721646423165425 0 0 0
23 1 12.578269704087134 3.1437194652191334 22.0095430592073 0 0 -1
24 1 14.150327327470329 4.715835462104342 1.5723092366771612 0 0 0
25 1 15.722302854032494 3.14376709697216 22.009543290961982 0 0 -1
26 1 17.29421428736421 4.715966674992322 1.5723061447190145 0 0 0
27 1 18.866208884998102 3.1437761165463085 22.00954350915854 0 0 -1
28 1 20.438322289406827 4.715786666735552 1.572094231561536 0 0 0
29 1 0.0007363428014575796 6.287904796758196 22.009543087507115 0 0 -1
30 1 1.5727574568348828 7.859990227317566 1.5720417630452008 0 0 0
31 1 3.144755564959278 6.287683415973176 22.00954296106088 0 0 -1
32 1 4.716706311866352 7.859724434366462 1.5718444918160377 0 0 0
33 1 6.288868096812503 6.287332121561636 22.009542921241614 0 0 -1
34 1 7.86079601688779 7.859207670318997 1.5713351769582415 0 0 0
35 1 9.433762702854926 6.287498898170713 22.00954294438914 0 0 -1
36 1 11.006031648402544 7.859575739690257 1.5716778989464149 0 0 0
37 1 12.578318672229884 6.287667753751915 22.009543022568362 0 0 -1
38 1 14.150495751915104 7.859672651812095 1.5722107260303246 0 0 0
39 1 15.722369072990418 6.287847740824153 22.00954318866334 0 0 -1
40 1 17.29403051252679 7.860228082895922 1.5722907738995613 0 0 0
41 1 18.866182688866797 6.288026784591169 22.00954319779751 0 0 -1
42 1 20.438209532959945 7.860129452250786 1.5721102232555366 0 0 0
43 1 0.0006120559797286401 9.432222376743429 22.00954274773981 0 0 -1
44 1 1.5725961680351963 11.004403286028863 1.5720320112201869 0 0 0
45 1 3.144609596751158 9.432140899789815 22.00954255757297 0 0 -1
46 1 4.716519303416187 11.004463297601562 1.5717436606098165 0 0 0
47 1 6.288616542561201 9.43196035987281 22.009542587839817 0 0 -1
48 1 7.860673412469811 11.004508289271413 1.5709441307719654 0 0 0
49 1 9.433201824084668 9.431693241983291 22.009542678189376 0 0 -1
50 1 11.005872923723736 11.004564199700376 1.569977179672373 0 0 0
51 1 12.57844027428526 9.431738608907933 22.009542746857996 0 0 -1
52 1 14.149825739457397 11.004439070687562 1.572420886004723 0 0 0
53 1 15.721933537379833 9.432271469126713 22.00954287538476 0 0 -1
54 1 17.293791680066423 11.004286017780764 1.5723201466258083 0 0 0
55 1 18.86600448014523 9.43225612572654 22.009542793394214 0 0 -1
56 1 20.43803243477238 11.004328202767034 1.5721321437572107 0 0 0
57 1 0.0004325303260860409 12.57651195260253 22.009542569355517 0 0 -1
58 1 1.5724116055121578 14.148775594772149 1.5720426713413709 0 0 0
59 1 3.144432282532972 12.576729001038732 22.00954241321871 0 0 -1
60 1 4.716381763041921 14.149221781071978 1.5717858468294028 0 0 0
61 1 6.288450766672886 12.577020593286914 22.009542388166107 0 0 -1
62 1 7.86049999521797 14.149901282126606 1.571152545871788 0 0 0
63 1 9.433050240027194 12.57734645919432 22.009542435456954 0 0 -1
64 1 11.005980370547961 14.149194153901943 1.5717821501902476 0 0 0
65 1 12.57833642869262 12.577057998862475 22.00954250067838 0 0 -1
66 1 14.150194265369567 14.14882524246746 1.572392315705264 0 0 0
67 1 15.721851734233933 12.576385341191514 22.00954265534075 0 0 -1
68 1 17.293746650875892 14.14831020278625 1.572381179849853 0 0 0
69 1 18.865828636404505 12.57634777435075 22.00954264279239 0 0 -1
70 1 20.43785340849275 14.148483519433467 1.5721692716903886 0 0 0
71 1 0.0003078602595727944 15.720721631274909 22.00954279071844 0 0 -1
72 1 1.5724189071008314 17.292977618813858 1.5721019614268623 0 0 0
73 1 3.144367798481786 15.721155160258762 22.00954260552257 0 0 -1
74 1 4.716641889684907 17.29343076841404 1.5719959743106964 0 0 0
75 1 6.288543753620271 15.721722750785174 22.00954241275845 0 0 -1
76 1 7.861399671656957 17.293437909923018 1.5719532187071326 0 0 0
77 1 9.433644990496786 15.721388133179865 22.009542278635617 0 0 -1
78 1 11.005985933333184 17.29317483306728 1.5720513336214574 0 0 0
79 1 12.57814344180357 15.721027973899556 22.009542343079467 0 0 -1
80 1 14.150157788485672 17.292783433520103 1.5722462859305177 0 0 0
81 1 15.722012777352473 15.720585489722191 22.009542648477062 0 0 -1
82 1 17.293816917285255 17.29236836401727 1.5724367079070347 0 0 0
83 1 18.865784784414213 15.72046027126674 22.009542819782254 0 0 -1
84 1 20.437832245795285 17.29259852028702 1.57223538902724 0 0 0
85 1 0.0004013979609219342 18.864856241585922 22.009543276522066 0 0 -1
86 1 1.5726521260012072 20.436977141313985 1.5721426695199074 0 0 0
87 1 3.1446308544854262 18.865185904845774 22.00954305638333 0 0 -1
88 1 4.716993866612817 20.43723912164621 1.5720167689083697 0 0 0
89 1 6.289162838555618 18.86538618873806 22.009542623155937 0 0 -1
90 1 7.861595749034083 20.43728934515051 1.572023734513468 0 0 0
91 1 9.433778668685267 18.865297614039523 22.00954236156457 0 0 -1
92 1 11.006053314421347 20.437161674566113 1.5720768717961147 0 0 0
93 1 12.578142367073887 18.865035545042762 22.00954246298281 0 0 -1
94 1 14.150249031425263 20.43695682701024 1.5721427720938532 0 0 0
95 1 15.722162936127187 18.864762537660823 22.009542835080033 0 0 -1
96 1 17.294160736896234 20.436769410055167 1.572208945611676 0 0 0
97 1 18.865889022056905 18.86457857431613 22.009543251089898 0 0 -1
98 1 20.438035273169664 20.436766555000823 1.5722223391686634 0 0 0
99 1 0.0007515796897712666 22.008927059015896 3.1442532393939597 0 -1 0
100 1 1.5730867964664013 1.5715136072701934 4.716284513698654 0 0 0
101 1 3.1449541544280226 22.009086288503514 3.144145683381124 0 -1 0
102 1 4.717209943368999 1.5716067663654494 4.716068396223114 0 0 0
103 1 6.289384582936495 22.009195977290698 3.1440433741831066 0 -1 0
104 1 7.861770672730545 1.5716265343998344 4.7160866953006435 0 0 0
105 1 9.433936779508398 22.009229791068453 3.1441168510765762 0 -1 0
106 1 11.006290431378995 1.5717238099121253 4.716268861059578 0 0 0
107 1 12.578260934315841 22.009137163870907 3.144202278075512 0 -1 0
108 1 14.150463420400216 1.5717350562648402 4.716345925769711 0 0 0
109 1 15.722327369826397 22.009004455206554 3.144288810087511 0 -1 0
110 1 17.294340686127438 1.571624061611517 4.716503931298163 0 0 0
111 1 18.866186623452826 22.008888853788303 3.1443871374958134 0 -1 0
112 1 20.438517403588886 1.571387759430574 4.716342009465924 0 0 0
113 1 0.0010151385357420803 3.1436474359503133 3.1442429614116585 0 0 0
114 1 1.5735792522502074 4.715813067533445 4.7163394835840196 0 0 0
115 1 3.1452452082232156 3.143723131283842 3.1442620007750146 0 0 0
116 1 4.717901772139104 4.716113805619545 4.716581755843503 0 0 0
117 1 6.289410948723323 3.1435136510377526 3.1439622300263625 0 0 0
118 1 7.861723226138134 4.715412702284693 4.715825272763897 0 0 0
119 1 9.434105791210355 3.1436993633520354 3.1442030638892784 0 0 0
120 1 11.00650526774031 4.71605512353924 4.7167302409059175 0 0 0
121 1 12.578340595680277 3.1438251596920037 3.1443468489839907 0 0 0
122 1 14.150205116222548 4.716408576041644 4.717051458621107 0 0 0
123 1 15.72227577814679 3.1439233363771613 3.144492528445706 0 0 0
124 1 17.294060161491213 4.716286497418334 4.716866758990806 0 0 0
125 1 18.866268601963174 3.1438034917913216 3.1444028362343532 0 0 0
126 1 20.43881579849103 4.715621119888675 4.716176160397155 0 0 0
127 1 0.000986062227122479 6.287881082307963 3.1441322639137987 0 0 0
128 1 1.5733442709586078 7.860000747518032 4.716155189141899 0 0 0
129 1 3.1450084265547917 6.2876971353033095 3.144062842065187 0 0 0
130 1 4.71702859857743 7.859639765171265 4.715695151326677 0 0 0
131 1 6.289040537359186 6.287350220627941 3.143824558966986 0 0 0
132 1 7.860392097271869 7.858623604119483 4.71441922431159 0 0 0
133 1 9.433863040146026 6.2875059386476355 3.1438804399621736 0 0 0
134 1 11.00576759902934 7.859910188895189 4.7156958185318105 0 0 0
135 1 12.5783022955036 6.287904656190098 3.144673950111233 0 0 0
136 1 14.149948684989853 7.860405094681617 4.7176760753176685 0 0 0
137 1 15.722123448994687 6.288211561854873 3.144857972692144 0 0 0
138 1 17.294232729189776 7.8601889541612415 4.716463948855037 0 0 0
139 1 18.866356903695 6.287974721411305 3.144211018653082 0 0 0
140 1 20.438695947345703 7.860041981841498 4.716194262529425 0 0 0
141 1 0.0008171035985831996 9.432215498212507 3.1441498678455773 0 0 0
142 1 1.5730623225729268 11.004392737122359 4.716139754656292 0 0 0
143 1 3.144822138286549 9.432154886247934 3.1439362495794807 0 0 0
144 1 4.7167951781834425 11.004482599893855 4.71547942238056 0 0 0
145 1 6.288593796684813 9.43189519365481 3.1430265864646323 0 0 0
146 1 7.8604505016622355 11.004606320759173 4.7126489748051945 0 0 0
147 1 9.432456835765846 9.431065517997384 3.1409132458652755 0 0 0
148 1 11.004880713319874 11.005161568687551 4.704048986122903 0 0 0
149 1 12.578586743909234 9.431236870053208 3.1429468683823036 0 0 0
150 1 14.147664500259452 11.004806182106075 4.718393341794987 0 0 0
151 1 15.721539812432546 9.432517451687357 3.144976235171589 0 0 0
152 1 17.293540859464713 11.004274188681862 4.7168806755187065 0 0 0
153 1 18.866060121639386 9.432285507707157 3.1443505725937766 0 0 0
154 1 20.43837433232302 11.004314745153229 4.716307688656043 0 0 0
155 1 0.0005824627709533837 12.576483380748645 3.1441816066303976 0 0 0
156 1 1.5728052527080933 14.148728351734215 4.716198454788697 0 0 0
157 1 3.144600465362032 12.576711091846642 3.1439125670777868 0 0 0
158 1 4.716542795012002 14.149322737832883 4.715549520326089 0 0 0
159 1 6.288354955876123 12.577122352069368 3.1429229477917566 0 0 0
160 1 7.8598667327887 14.15082291218155 4.713692751566021 0 0 0
161 1 9.432157699353715 12.578213478758602 3.1406080530999194 0 0 0
162 1 11.006331287494302 14.148654024606316 4.716129686844261 0 0 0
163 1 12.578497417983522 12.577540256871723 3.143986910394279 0 0 0
164 1 14.148905491014258 14.147614916467262 4.71845672430342 0 0 0
165 1 15.72148148281461 12.576151154595252 3.14503261220005 0 0 0
166 1 17.293421197220095 14.147999368867996 4.717018256626766 0 0 0
167 1 18.865826013356415 12.576276616340833 3.1444278327441215 0 0 0
168 1 20.43807035740408 14.148437474648736 4.716390479933962 0 0 0
169 1 0.00043290267263798707 15.720678961144538 3.1442590542248627 0 0 0
170 1 1.5728430860954579 17.292717084370274 4.716436248099428 0 0 0
171 1 3.1445034839678687 15.721131179635906 3.144017566969809 0 0 0
172 1 4.717244705365408 17.29288337229632 4.716344889321535 0 0 0
173 1 6.288575148455617 15.72177458835512 3.143527266400654 0 0 0
174 1 7.861468218548559 17.293498202901834 4.715810661936874 0 0 0
175 1 9.433816649172494 15.721345694338135 3.143890546532442 0 0 0
176 1 11.006049039027708 17.293034601601473 4.716223012753612 0 0 0
177 1 12.578106216967646 15.720908121668435 3.1443661996109364 0 0 0
178 1 14.150100259573115 17.292328429994175 4.716684761428598 0 0 0
179 1 15.72156716545508 15.72000316313865 3.14516957214512 0 0 0
180 1 17.293410150110443 17.291683654480224 4.717236345533878 0 0 0
181 1 18.86572981471336 15.720307026293103 3.1445646153217264 0 0 0
182 1 20.437896834327276 17.2923733242318 4.716628196966721 0 0 0
183 1 0.0005213079534878523 18.864695340661065 3.1443746959848746 0 0 0
184 1 1.572810521529297 20.436862514967565 4.716341779041232 0 0 0
185 1 3.144815279193482 18.864998040308457 3.14423518734248 0 0 0
186 1 4.717020608497935 20.437066499539558 4.7160775545783755 0 0 0
187 1 6.289166777283083 18.865373619633004 3.1439522971371567 0 0 0
188 1 7.86160737498834 20.4372239343955 4.7160669084868605 0 0 0
189 1 9.433834379355375 18.865261075991402 3.144071741842679 0 0 0
190 1 11.00612910585349 20.43711958528696 4.716195788223539 0 0 0
191 1 12.578173278351324 18.864942623958118 3.144241438667575 0 0 0
192 1 14.150375551416811 20.436811813703898 4.716317973371445 0 0 0
193 1 15.722131411028247 18.864533694281427 3.1444645680624927 0 0 0
194 1 17.294151296648923 20.436484949396792 4.716579528822206 0 0 0
195 1 18.865876546006156 18.86438828010566 3.14457425047765 0 0 0
196 1 20.43820597598899 20.43662954457926 4.716476631173428 0 0 0
197 1 0.0010131510457555349 22.008781363033137 6.288489610094934 0 -1 0
198 1 1.5734040826266396 1.571461691099658 7.860537460868699 0 0 0
199 1 3.145052625769655 22.0089886373345 6.28828130203625 0 -1 0
200 1 4.717254245023376 1.571519103852089 7.860245284653752 0 0 0
201 1 6.289149352033531 22.009038296027594 6.287914028592151 0 -1 0
202 1 7.861207890315603 1.570908106203631 7.859742382476731 0 0 0
203 1 9.433986527895184 22.009133726369775 6.288144255364471 0 -1 0
204 1 11.00661629645155 1.5712221928102796 7.860211279078844 0 0 0
205 1 12.578524887822711 22.00906071433167 6.2882130589593785 0 -1 0
206 1 14.150906452672745 1.5715021226854855 7.860271907329686 0 0 0
207 1 15.72252169321859 22.0087973852348 6.288417942972167 0 -1 0
208 1 17.294726121322064 1.5711945273929449 7.860561769973991 0 0 0
209 1 18.866444279436816 22.008642460088918 6.28852179410081 0 -1 0
210 1 20.43887448905271 1.571196366997355 7.8605531005207 0 0 0
211 1 0.0014750938503897075 3.1434930257236684 6.288374404874723 0 0 0
212 1 1.5741461909700976 4.715808985752463 7.860530120135522 0 0 0
213 1 3.1454651903650483 3.1437122797949413 6.288307800062267 0 0 0
214 1 4.717903114394316 4.715976303497272 7.860316657486751 0 0 0
215 1 6.289343984095643 3.143509304856987 6.2878250855977305 0 0 0
216 1 7.86070492460999 4.71449314243618 7.858758264481448 0 0 0
217 1 9.434340609754244 3.143634873355567 6.288381357058957 0 0 0
218 1 11.007579775122258 4.715615708330814 7.861256239600415 0 0 0
219 1 12.57869891609803 3.1440476421200043 6.2884791132184965 0 0 0
220 1 14.150556657311787 4.717196766779679 7.861297117526163 0 0 0
221 1 15.722406887683507 3.144142309282026 6.288768146205988 0 0 0
222 1 17.295365820220074 4.715151742842643 7.860265138073831 0 0 0
223 1 18.86684907209451 3.1433531562344745 6.288343351842666 0 0 0
224 1 20.43960481308003 4.715316129901825 7.860338542704934 0 0 0
225 1 0.002048940062243394 6.287615672778931 6.2881063285602705 0 0 0
226 1 1.574762265860141 7.859847400713443 7.8601959932755046 0 0 0
227 1 3.146429964037992 6.28822106737393 6.288598652704282 0 0 0
228 1 4.719988095405053 7.860919824063673 7.860711527066655 0 0 0
229 1 6.29144869686838 6.289398245222298 6.289457036143165 0 0 0
230 1 7.868584826878531 7.866467948316582 7.863105882296115 0 0 0
231 1 9.434061682342573 6.28743775297809 6.2882097843291005 0 0 0
232 1 11.004103008463256 7.8612470727408725 7.863641521970516 0 0 0
233 1 12.578239003660832 6.2897318003755665 6.290483872411379 0 0 0
234 1 14.147986855996772 7.866208513054226 7.867320399081861 0 0 0
235 1 15.721210877432176 6.289589435539222 6.290214477401994 0 0 0
236 1 17.297290248296168 7.8581300806400955 7.858727998313044 0 0 0
237 1 18.86735061709909 6.287310407359686 6.2878675893707365 0 0 0
238 1 20.440661260890504 7.859187809695494 7.85971248094425 0 0 0
239 1 0.0017562865666106867 9.432165220571392 6.288231310130822 0 0 0
240 1 1.5742556046427767 11.004394248205703 7.86038809359301 0 0 0
241 1 3.1458142866649212 9.43225855644937 6.288142899294199 0 0 0
242 1 4.718509275790806 11.004489329650863 7.860635017561372 0 0 0
243 1 6.288699385257852 9.431695604890615 6.286123869839292 0 0 0
244 1 7.859331292693618 11.00447288557911 7.8537087212784344 0 0 0
245 1 9.429270516686685 9.428382902088611 6.280651518991366 0 0 0
246 1 11.005070280186853 11.006455725033385 7.805739329635057 0 0 0
247 1 12.57609045718038 9.431242892572518 6.288173511818013 0 0 0
248 1 14.14706515543293 11.005028413343906 7.865126545072767 0 0 0
249 1 15.721292529571297 9.432757622278537 6.289254520380212 0 0 0
250 1 17.29497989418085 11.004660921881896 7.861033736674947 0 0 0
251 1 18.866776116299746 9.432257352993604 6.288344688885262 0 0 0
252 1 20.439760062197603 11.00436067906716 7.8602418964644345 0 0 0
253 1 0.0012778565397769638 12.57650541842862 6.288285956531806 0 0 0
254 1 1.5736405716804074 14.148778821595755 7.860247803294101 0 0 0
255 1 3.1454287299917643 12.576604412469607 6.288112812009168 0 0 0
256 1 4.7188067364366395 14.148392074660629 7.8603481790618135 0 0 0
257 1 6.288339654949214 12.577423953156659 6.2859968145317 0 0 0
258 1 7.866274814673433 14.145245478025501 7.860601169481954 0 0 0
259 1 9.428530444123599 12.581913822042578 6.279653040730329 0 0 0
260 1 11.007670752221227 14.148598320705961 7.862406106910628 0 0 0
261 1 12.576280417888775 12.577415878628605 6.295523653586557 0 0 0
262 1 14.143133805243483 14.14198990464278 7.867585676834272 0 0 0
263 1 15.720544760395244 12.575743774970856 6.289720609323297 0 0 0
264 1 17.29268889040953 14.147509437050227 7.861165467015975 0 0 0
265 1 18.866148672326524 12.576321527379756 6.288423409894163 0 0 0
266 1 20.438657738343096 14.148628603790494 7.860251327389736 0 0 0
267 1 0.0008797219137058106 15.720607597326472 6.288428787416913 0 0 0
268 1 1.5731668366292364 17.292513159698803 7.860643770635315 0 0 0
269 1 3.1454993441027965 15.720627881344805 6.288477405769143 0 0 0
270 1 4.7172815686840535 17.292859241461013 7.860226855053434 0 0 0
271 1 6.290367594887369 15.720249091413285 6.288643197764992 0 0 0
272 1 7.860915548552799 17.293950180796426 7.859231721974795 0 0 0
273 1 9.434164683238707 15.721503616177248 6.288265425422355 0 0 0
274 1 11.006822196513312 17.293463947278244 7.860524175117992 0 0 0
275 1 12.57797997384356 15.720472489607124 6.288836044715622 0 0 0
276 1 14.149881474047872 17.291212855567913 7.861008548648136 0 0 0
277 1 15.719895049834717 15.718072957156732 6.29082427597527 0 0 0
278 1 17.293697628410225 17.291649081655763 7.8609858421643475 0 0 0
279 1 18.865516082588638 15.719948160705684 6.288958101289305 0 0 0
280 1 20.438162758402665 17.29220844888575 7.86079458327332 0 0 0
281 1 0.0007689715991061876 18.864562205816682 6.288587499885062 0 0 0
282 1 1.5730833979668042 20.43669435679047 7.860581228771023 0 0 0
283 1 3.144962121493235 18.864843117442863 6.288345600226034 0 0 0
284 1 4.71706349415023 20.436986878740484 7.860257272800844 0 0 0
285 1 6.289116790135899 18.86518110811704 6.287887926889477 0 0 0
286 1 7.861224432053527 20.437367105055262 7.859879428547418 0 0 0
287 1 9.43397094039959 18.86523386935455 6.288212673047971 0 0 0
288 1 11.00639033017016 20.437220433566495 7.86017026325158 0 0 0
289 1 12.578403514022337 18.86481437984915 6.288266767153212 0 0 0
290 1 14.150640609142743 20.436537720372904 7.860330698731618 0 0 0
291 1 15.722020626614542 18.863901588679788 6.288823917695015 0 0 0
292 1 17.294277926494235 20.436269523108237 7.860704008719676 0 0 0
293 1 18.866048317148657 18.864233183951637 6.288721392784776 0 0 0
294 1 20.438423329665465 20.436453009012396 7.86067296095357 0 0 0
295 1 0.0012457692693373 22.008675700091636 9.432677041515394 0 -1 0
296 1 1.5735692167702044 1.5714270978387768 11.00476940531204 0 0 0
297 1 3.1453026133306143 22.008911451007883 9.432626033309262 0 -1 0
298 1 4.717452885382254 1.5715925295448927 11.00476945075354 0 0 0
299 1 6.289131561542037 22.00896803986311 9.432346918956439 0 -1 0
300 1 7.8612233338076525 1.5704409305382774 11.004769514169258 0 0 0
301 1 9.433760717591385 22.00870124259724 9.432214135587767 0 -1 0
302 1 11.0067289007518 1.5693682100561526 11.00476959816615 0 0 0
303 1 12.578866950310289 22.008692175738798 9.43225837284108 0 -1 0
304 1 14.150735991051501 1.5712489603148885 11.004769819762156 0 0 0
305 1 15.722568228299611 22.008524559982067 9.432667309821936 0 -1 0
306 1 17.294854643154213 1.5710266307506007 11.004769896008883 0 0 0
307 1 18.86662957523134 22.00846993062808 9.432701358277347 0 -1 0
308 1 20.439031254627952 1.5711188835193326 11.004769670687402 0 0 0
309 1 0.0018605512308250494 3.143425951067128 9.432642355880319 0 0 0
310 1 1.5744747372535364 4.715864096379914 11.00476955381675 0 0 0
311 1 3.1458532315384318 3.1438289237170185 9.43267894097851 0 0 0
312 1 4.718528401033014 4.716532654507221 11.004769452170581 0 0 0
313 1 6.28935457155925 3.143231011638448 9.43216455216368 0 0 0
314 1 7.860712346862111 4.712595443901915 11.004769504399018 0 0 0
315 1 9.433221103042602 3.1401313258770522 9.431623470635804 0 0 0
316 1 11.007293332544345 4.704943537880306 11.004769561329384 0 0 0
317 1 12.579633370259275 3.142898615068535 9.431842830033306 0 0 0
318 1 14.150473686876529 4.716041084785171 11.004769743820493 0 0 0
319 1 15.72295587296509 3.1434132918684576 9.432700562957663 0 0 0
320 1 17.295755646636998 4.714976831026912 11.00476984454467 0 0 0
321 1 18.867270623639456 3.1431157488567485 9.432606683989018 0 0 0
322 1 20.439941491381358 4.7152699510830365 11.004769721949344 0 0 0
323 1 0.0029133637628916222 6.287628383583546 9.43253400852107 0 0 0
324 1 1.5755988837975743 7.860186968591801 11.004769515603334 0 0 0
325 1 3.1472202138221492 6.288493667517585 9.432798108720966 0 0 0
326 1 4.721136460899672 7.8625486952513315 11.004769215210228 0 0 0
327 1 6.291028082531451 6.288572471893215 9.431763152609731 0 0 0
328 1 7.86259642930414 7.858424606397866 11.004769273776798 0 0 0
329 1 9.429929184321471 6.276789089243363 9.429599543366948 0 0 0
330 1 11.000231868543555 7.806646816739721 11.004769272657242 0 0 0
331 1 12.580632943528784 6.292406579178872 9.433967036844308 0 0 0
332 1 14.15579638625166 7.859207781704363 11.004769469950338 0 0 0
333 1 15.72464747586531 6.286793026547585 9.432436561083346 0 0 0
334 1 17.299231816361146 7.858477185799751 11.004769606610262 0 0 0
335 1 18.8686083123803 6.286924084306397 9.432304440592102 0 0 0
336 1 20.44156322868915 7.859279529834769 11.004769626606043 0 0 0
337 1 0.0035067415751841757 9.431765692728298 9.43222036014815 0 0 0
338 1 1.5742942170213827 11.004420183519874 11.004769373218888 0 0 0
339 1 3.1471228338390644 9.431847476566201 9.43188420389979 0 0 0
340 1 4.712441368256589 11.00461711845501 11.004768975993647 0 0 0
341 1 6.2966255308754056 9.433678153511634 9.430020105489671 0 0 0
342 1 7.816000850771283 11.005283267280397 11.004768893707384 0 0 0
343 1 9.429364170099284 9.413679916439817 9.445482188869033 0 0 0
344 1 20.4380356098738 20.436766596695303 20.43731757497574 0 0 0
345 1 12.572745608247404 9.424043407476654 9.422069823343515 0 0 0
346 1 14.219733276348933 11.003709866327627 11.004769248004909 0 0 0
347 1 15.733389628093931 9.426037618352268 9.427726665528349 0 0 0
348 1 17.31012514152309 11.003886524276492 11.004769351964448 0 0 0
349 1 18.87163699918731 9.430492736491855 9.43121488244857 0 0 0
350 1 20.442628167800006 11.004358339933937 11.004769408654361 0 0 0
351 1 0.0022846015275442074 12.576750431347586 9.432252536774602 0 0 0
352 1 1.5741481768282677 14.14838232393705 11.004769389516376 0 0 0
353 1 3.146264510198037 12.577121094406495 9.431835819929665 0 0 0
354 1 4.719639085808405 14.14689372163449 11.004768908524724 0 0 0
355 1 6.2947295103577945 12.576243613261383 9.429594400942502 0 0 0
356 1 7.859726389824055 14.153054750905534 11.004768657578344 0 0 0
357 1 9.42080570946698 12.603174040276487 9.437855881592506 0 0 0
358 1 11.007185667314332 14.180269373143982 11.004768737145735 0 0 0
359 1 12.563941133586457 12.559628873649688 9.44938613233624 0 0 0
360 1 14.145034941048113 14.144091621916942 11.004769076898654 0 0 0
361 1 15.717342645183184 12.576001853739033 9.431043278247687 0 0 0
362 1 17.292248295213668 14.145571697792525 11.004769340074269 0 0 0
363 1 18.86792466753513 12.577119714226049 9.431460382183419 0 0 0
364 1 20.43870859490146 14.148111145248768 11.004769449697621 0 0 0
365 1 0.0012267358022137428 15.720312200509602 9.432732602158557 0 0 0
366 1 1.5734202838448794 17.29235005347219 11.00476939973654 0 0 0
367 1 3.1460910540467557 15.720288695495372 9.432741605165376 0 0 0
368 1 4.717894925236174 17.292181970327487 11.004769048048422 0 0 0
369 1 6.290234627318134 15.72085878686086 9.43139863754325 0 0 0
370 1 7.860632519157859 17.29575035059644 11.004768886569599 0 0 0
371 1 9.43219832007172 15.729571404634704 9.431319490229827 0 0 0
372 1 11.007347791662596 17.29871446779375 11.004768902717299 0 0 0
373 1 12.578813360314815 15.71756725616485 9.431675269628034 0 0 0
374 1 14.149037933586149 17.290810819453704 11.004769177868244 0 0 0
375 1 15.720830911426589 15.71859250442201 9.433394042283158 0 0 0
376 1 17.29365181033949 17.29131197682117 11.004769385000314 0 0 0
377 1 18.865668574283813 15.719630182647137 9.4330108261887 0 0 0
378 1 20.4383189134792 17.29209085601757 11.004769461605619 0 0 0
379 1 0.0010157855145994038 18.864403703953112 9.43273482213231 0 0 0
380 1 1.5732302011344417 20.43661875710164 11.004769381239779 0 0 0
381 1 3.1453234494012245 18.86456025136024 9.432692761148168 0 0 0
382 1 4.717252689994022 20.436824014409343 11.004769288309792 0 0 0
383 1 6.289112701421828 18.865326140572154 9.432189152186757 0 0 0
384 1 7.861180154842921 20.437679314797887 11.004769252388595 0 0 0
385 1 9.433460725234893 18.867254858537823 9.432040494824012 0 0 0
386 1 11.006530849379445 20.4377992101762 11.004769291662912 0 0 0
387 1 12.57887257379752 18.86497118997765 9.432049521977502 0 0 0
388 1 14.150439377994617 20.436308692479805 11.004769514016983 0 0 0
389 1 15.722003707955311 18.863702055995425 9.432890645586824 0 0 0
390 1 17.2943273500916 20.43616007584252 11.00476962744138 0 0 0
391 1 18.86615094142621 18.86403164533706 9.432821733280646 0 0 0
392 1 20.438539680262508 20.436383292036687 11.004769542530829 0 0 0
393 1 0.0012459894319286392 22.008675567580227 12.576861990392878 0 -1 0
394 1 1.5734044135195207 1.5714614464694563 14.149001562985868 0 0 0
395 1 3.1453028892593866 22.008911265231784 12.57691269167369 0 -1 0
396 1 4.717254628654588 1.5715187654164966 14.149293647999635 0 0 0
397 1 6.289131795589966 22.00896784574293 12.577191873014314 0 -1 0
398 1 7.861208298077727 1.5709078665174503 14.149796644837615 0 0 0
399 1 9.433760992915326 22.008700993455765 12.577324704318109 0 -1 0
400 1 11.006616678702295 1.571221878918548 14.149327855065428 0 0 0
401 1 12.578867184508676 22.008691921108092 12.577280775708699 0 -1 0
402 1 14.15090688890665 1.5715017579250365 14.14926771608331 0 0 0
403 1 15.72256851431634 22.008524377865566 12.57687225164882 0 -1 0
404 1 17.294726604997063 1.5711942719834884 14.148978015718669 0 0 0
405 1 18.86662990576673 22.00846978172959 12.576838065020466 0 -1 0
406 1 20.438875019172738 1.5711960202365882 14.148986361180034 0 0 0
407 1 0.0018607693525369525 3.1434257326298205 12.57689684508996 0 0 0
408 1 1.5741465205389662 4.7158085703971855 14.14900896587394 0 0 0
409 1 3.1458533823522554 3.1438287881610827 12.576860003069612 0 0 0
410 1 4.717903337637656 4.715975975694343 14.14922225168726 0 0 0
411 1 6.289354744046168 3.143230854684684 12.577374468511078 0 0 0
412 1 7.860705173132074 4.714492914001167 14.150780503204663 0 0 0
413 1 9.433221266094861 3.140131236896427 12.57791562945584 0 0 0
414 1 11.007580066901285 4.715615494882145 14.148282771647073 0 0 0
415 1 12.5796335647712 3.1428984441625403 12.577696621756566 0 0 0
416 1 14.150557017516 4.717196356467085 14.148242352582244 0 0 0
417 1 15.722956107583915 3.143413091063848 12.576839271093663 0 0 0
418 1 17.29536626526159 4.715151314141916 14.149274570064998 0 0 0
419 1 18.867270844974122 3.1431155718579955 12.576932974878034 0 0 0
420 1 20.439605203527226 4.715315724954328 14.14920093464144 0 0 0
421 1 0.002913544314870201 6.287628197458589 12.577005221974678 0 0 0
422 1 1.5747625492401447 7.859847161122675 14.14934290922892 0 0 0
423 1 3.147220332738353 6.288493469225866 12.57674078065852 0 0 0
424 1 4.719988386082198 7.860919502730496 14.148826971031466 0 0 0
425 1 6.291028228422934 6.288572302077789 12.577775524392864 0 0 0
426 1 7.868585333782227 7.866467973510553 14.146432130427767 0 0 0
427 1 9.429929408245506 6.276789098470896 12.579939137012559 0 0 0
428 1 11.004103536399032 7.861246908704914 14.145896914175914 0 0 0
429 1 12.580633228717403 6.292406304491287 12.575572008649175 0 0 0
430 1 14.147987434375896 7.86620800700043 14.142218673836021 0 0 0
431 1 15.724647746644946 6.2867927668913826 12.577102856617808 0 0 0
432 1 17.29729065145253 7.858129701002157 14.15081121095714 0 0 0
433 1 18.868608546462728 6.2869238717116405 12.577235049665097 0 0 0
434 1 20.440661591323195 7.859187473645425 14.149826684812767 0 0 0
435 1 0.003506911710187313 9.431765584642177 12.577318594787583 0 0 0
436 1 1.574255930284004 11.004394098958244 14.149150497700028 0 0 0
437 1 3.147122959883784 9.431847356495313 12.577654322732002 0 0 0
438 1 4.718509636763702 11.004489060307709 14.148903030678204 0 0 0
439 1 6.296625817757953 9.433678098278895 12.57951791235969 0 0 0
440 1 7.859331544569025 11.004472673222578 14.155828929639835 0 0 0