LAMMPS data file via write_data, version 2 Aug 2023, timestep = 25, units = metal

688 atoms
3 atom types

0 22.009546999999998 xlo xhi
0 22.009546999999998 ylo yhi
0 22.009546999999998 zlo zhi

Masses

1 183.84
2 1.008
3 4.0026

Atoms # atomic

1 1 22.008374047386493 22.00771805077871 22.009543833752463 -1 -1 -1
2 1 1.571197113584378 1.5703690908490637 1.5723079203516788 0 0 0
3 1 3.1434007904896206 22.007649861897264 22.009543834174202 0 -1 -1
4 1 4.715662936763142 1.5702960829322454 1.572363702772652 0 0 0
5 1 6.287727827157236 22.007582663495835 22.0095438351622 0 -1 -1
6 1 7.859834350828538 1.5703064843257968 1.57243111017454 0 0 0
7 1 9.431810719789226 22.00756208813143 22.009543836081278 0 -1 -1
8 1 11.003786553604563 1.5703439863465258 1.5724495825160973 0 0 0
9 1 12.575738522130854 22.007592841593894 22.009543836077352 0 -1 -1
10 1 14.147650119792967 1.5704185346317923 1.5724693034151138 0 0 0
11 1 15.719694126796904 22.007664601934593 22.009543835428197 0 -1 -1
12 1 17.29166730982654 1.5704587323352157 1.5724100863822983 0 0 0
13 1 18.863867873375078 22.007728312254166 22.009543834277586 0 -1 -1
14 1 20.43603074814928 1.5704563690170703 1.5723412833724224 0 0 0
15 1 22.008373201240335 3.1425625459877033 22.009543833680247 -1 0 -1
16 1 1.5711959006676013 4.714704652621286 1.5723263624300194 0 0 0
17 1 3.1433947887408995 3.1424839088877077 22.009543834118986 0 0 -1
18 1 4.715607155265302 4.714598315560918 1.5724594589811558 0 0 0
19 1 6.287730846614025 3.14245798632346 22.0095438350955 0 0 -1
20 1 7.859843330529013 4.714671983085932 1.5725682863670547 0 0 0
21 1 9.431805189986683 3.1425177345905673 22.009543836056405 0 0 -1
22 1 11.003795025595839 4.714799819057403 1.5725885624086553 0 0 0
23 1 12.575726030382038 3.142584528563003 22.00954383600778 0 0 -1
24 1 14.147619719095196 4.714870945865552 1.5726681266661633 0 0 0
25 1 15.719645171353555 3.1426525497177344 22.00954383536778 0 0 -1
26 1 17.291663112971378 4.71486715574682 1.5725609586791016 0 0 0
27 1 18.86382081263263 3.142670889447257 22.00954383420198 0 0 -1
28 1 20.436040379753877 4.714810019798991 1.572351303361577 0 0 0
29 1 22.00838973754273 6.286794025169583 22.009543834362766 -1 0 -1
30 1 1.5712258523081286 7.858825145233708 1.572342806287653 0 0 0
31 1 3.1434403947417926 6.286752873314708 22.00954383479678 0 0 -1
32 1 4.715698664618798 7.858850492442383 1.5725746622164993 0 0 0
33 1 6.287478140125299 6.28647006385882 22.009543835905742 0 0 -1
34 1 7.859396108745953 7.8584191767320295 1.572314416920958 0 0 0
35 1 9.431761510978179 6.286643009596982 22.009543836852583 0 0 -1
36 1 11.003822387824913 7.858730667563207 1.5724864367080869 0 0 0
37 1 12.575805578696501 6.286745636617927 22.00954383682594 0 0 -1
38 1 14.148024876115471 7.85863316521566 1.5725556576441218 0 0 0
39 1 15.719853561405596 6.286731762240172 22.00954383604089 0 0 -1
40 1 17.291546752604834 7.859105500733863 1.572730840281772 0 0 0
41 1 18.86378513735973 6.2869564342599995 22.00954383485473 0 0 -1
42 1 20.43607088387422 7.858904737579238 1.5723702882884145 0 0 0
43 1 22.008432364553332 9.430871424235661 22.00954383534937 -1 0 -1
44 1 1.571244331870701 11.002870027126793 1.5723363998811086 0 0 0
45 1 3.1434414066685092 9.430814410279712 22.009543835811765 0 0 -1
46 1 4.715694699772062 11.002808667685791 1.5725122538410063 0 0 0
47 1 6.2875757065432785 9.430730082557906 22.009543836891506 0 0 -1
48 1 7.859551459169519 11.002771943965561 1.572458490741009 0 0 0
49 1 9.431460926547588 9.430494058854773 22.00954383787308 0 0 -1
50 1 11.003847593896419 11.002784254281664 1.5712972719797498 0 0 0
51 1 12.576137625596488 9.43056880659933 22.009543837845577 0 0 -1
52 1 14.147849478708379 11.002822046685997 1.5728531003200523 0 0 0
53 1 15.719731520529406 9.430904962625224 22.009543837050973 0 0 -1
54 1 17.291606007268047 11.002863492302923 1.5726658298877814 0 0 0
55 1 18.86385204365859 9.430918900091767 22.009543835899695 0 0 -1
56 1 20.436110072344174 11.002892467191351 1.5723656585058456 0 0 0
57 1 22.0084431650211 12.574926680916503 22.00954383593102 -1 0 -1
58 1 1.5712402008974342 14.146912396863563 1.5723419621322705 0 0 0
59 1 3.143443780418601 12.574874582822007 22.00954383629489 0 0 -1
60 1 4.715708412706467 14.146767368569492 1.5725686823792184 0 0 0
61 1 6.287582634055221 12.574838393752032 22.009543837387607 0 0 -1
62 1 7.859410750172267 14.14712661061634 1.5722956420962981 0 0 0
63 1 9.431473679585682 12.575046639855065 22.009543838356866 0 0 -1
64 1 11.003859947608573 14.146840902243408 1.5724656716921557 0 0 0
65 1 12.576163596189831 12.575027652123437 22.00954383836602 0 0 -1
66 1 14.14808348831882 14.147019484844503 1.5725442425378915 0 0 0
67 1 15.719761740497054 12.574788584677194 22.00954383759029 0 0 -1
68 1 17.29159448585273 14.146644088356286 1.5727223988096115 0 0 0
69 1 18.863870417821346 12.574864617434372 22.009543836463283 0 0 -1
70 1 20.436104165767293 14.146891548455912 1.5723694578983796 0 0 0
71 1 22.008421626451554 15.719023274990073 22.009543835666147 -1 0 -1
72 1 1.5712191535879265 17.291064018786987 1.5723224847117914 0 0 0
73 1 3.1434456417036896 15.718946818851368 22.009543836007502 0 0 -1
74 1 4.715613581999437 17.291034586374153 1.5724534615338102 0 0 0
75 1 6.287482949329923 15.719106382124895 22.00954383701706 0 0 -1
76 1 7.859853148722265 17.290885790976656 1.5725559283892447 0 0 0
77 1 9.431786751147396 15.71890315824954 22.00954383793539 0 0 -1
78 1 11.003834250538164 17.29077929354849 1.5725664111566917 0 0 0
79 1 12.575865876370106 15.718866858310443 22.0095438379481 0 0 -1
80 1 14.147692076834518 17.29080414239057 1.572652512662326 0 0 0
81 1 15.719939254855325 15.718994738422717 22.009543837241008 0 0 -1
82 1 17.29174267401915 17.290922684720424 1.5725501826544404 0 0 0
83 1 18.86384334678882 15.718873818547044 22.009543836139567 0 0 -1
84 1 20.43609319923886 17.291033096254225 1.5723426603922597 0 0 0
85 1 22.00840883957651 18.86330245474357 22.009543834614362 -1 0 -1
86 1 1.5712117928291662 20.43542648787155 1.572312443910011 0 0 0
87 1 3.143408392253163 18.863241571499618 22.00954383505351 0 0 -1
88 1 4.715669050951382 20.435358478987435 1.5723630018796733 0 0 0
89 1 6.287737369752693 18.86315276847116 22.00954383595742 0 0 -1
90 1 7.859838046935222 20.435266270573205 1.5724188782346253 0 0 0
91 1 9.431818353856135 18.863055129001243 22.009543836872144 0 0 -1
92 1 11.003795943692698 20.435240240310087 1.5724313955219458 0 0 0
93 1 12.575774604685076 18.86304263529372 22.009543836919484 0 0 -1
94 1 14.147686840018505 20.43527098926475 1.5724574248287482 0 0 0
95 1 15.719716136304688 18.863109708491802 22.00954383629356 0 0 -1
96 1 17.29170320230198 20.435371603269818 1.5724063473119092 0 0 0
97 1 18.863883092127466 18.863207719120087 22.00954383514139 0 0 -1
98 1 20.436061009314457 20.435430992680445 1.5723399810809988 0 0 0
99 1 22.008430912343716 22.007671619134545 3.1444488090707425 -1 -1 0
100 1 1.571323554696134 1.570313536756153 4.716615891224826 0 0 0
101 1 3.143600409208918 22.007605051959388 3.144602339517687 0 -1 0
102 1 4.716001213133706 1.5705007056883031 4.7169236124973075 0 0 0
103 1 6.287921041235565 22.00755303423053 3.1447254023296694 0 -1 0
104 1 7.860173858947337 1.570597847453039 4.717141410980625 0 0 0
105 1 9.431891073864152 22.0075425810862 3.144795351874279 0 -1 0
106 1 11.003841789302035 1.5706482486161004 4.7172021920406015 0 0 0
107 1 12.575709100270691 22.007577591432444 3.1448236505156335 0 -1 0
108 1 14.147415525183982 1.5707624339398105 4.717227747059263 0 0 0
109 1 15.719543863709895 22.007631196568774 3.144791303519041 0 -1 0
110 1 17.291458892182767 1.570672310119399 4.717009192031251 0 0 0
111 1 18.863750523745455 22.00768389132621 3.1446498556093707 0 -1 0
112 1 20.436089074782373 1.570369759168306 4.716646003880224 0 0 0
113 1 22.008429206557825 3.1426010448990445 3.144510145267183 -1 0 0
114 1 1.5715184685389336 4.71474754243634 4.716713881784172 0 0 0
115 1 3.143699491021729 3.142671559875081 3.1447237333626608 0 0 0
116 1 4.716550928944744 4.715436580620933 4.717483958695307 0 0 0
117 1 6.287997646531033 3.1426826251504836 3.144899019625048 0 0 0
118 1 7.860497886827738 4.71557676799251 4.717777433686369 0 0 0
119 1 9.431935628360986 3.1427890513224948 3.1449862996454363 0 0 0
120 1 11.003820797281264 4.715775939225344 4.7178571976669055 0 0 0
121 1 12.575648973040112 3.1428985726619856 3.145048862755392 0 0 0
122 1 14.146931355208354 4.715968951432804 4.718060241504937 0 0 0
123 1 15.71941485285113 3.1429393506407886 3.1450292776891913 0 0 0
124 1 17.290740314849685 4.715817789435327 4.717744245218604 0 0 0
125 1 18.863594501874296 3.1428782885602633 3.1448223104361186 0 0 0
126 1 20.435970679233495 4.714793213905448 4.716719842012723 0 0 0
127 1 22.00845246708533 6.286881730521078 3.1445995726718685 -1 0 0
128 1 1.5716796875589982 7.859002859119413 4.716872634491338 0 0 0
129 1 3.143760761886848 6.286959045217259 3.1448336674806576 0 0 0
130 1 4.716824575315214 7.859649712692091 4.71782355129329 0 0 0
131 1 6.287826633621884 6.286792909230536 3.145027223004121 0 0 0
132 1 7.859668838489645 7.858768190997865 4.71743153091224 0 0 0
133 1 9.432000101578062 6.2871497842542485 3.1453416698898193 0 0 0
134 1 11.003732509163218 7.860190238531517 4.718466906684555 0 0 0
135 1 12.575539611859456 6.287311433771847 3.1455534781886816 0 0 0
136 1 14.147519039929957 7.859227820785769 4.7182760326136135 0 0 0
137 1 15.719474345898531 6.287160092498627 3.1453716142678427 0 0 0
138 1 17.290426792553887 7.8599995607576485 4.718172798666307 0 0 0
139 1 18.863545205757813 6.287163410592151 3.144940049758213 0 0 0
140 1 20.435870964760305 7.859049689903188 4.7169166857122855 0 0 0
141 1 22.00849425274329 9.430874680705685 3.1445932094982973 -1 0 0
142 1 1.5716569759542185 11.002811205592712 4.716872111454647 0 0 0
143 1 3.143748038193366 9.430892248099006 3.1448023072603095 0 0 0
144 1 4.716612545579783 11.00278296242607 4.717575554128736 0 0 0
145 1 6.288153258305598 9.431065267368798 3.14544850439959 0 0 0
146 1 7.860975745213271 11.002767022891168 4.718923377200325 0 0 0
147 1 9.431145114932516 9.430308624281189 3.143754611729538 0 0 0
148 1 11.003732375918222 11.002788219235143 4.710589651785344 0 0 0
149 1 12.576360648788082 9.430428571985312 3.1443172936180903 0 0 0
150 1 14.145970866415633 11.002814652695385 4.720673902649733 0 0 0
151 1 15.71903052719717 9.431337991615845 3.146051671660775 0 0 0
152 1 17.290759808512703 11.002826261077784 4.717884863265766 0 0 0
153 1 18.863618306288355 9.430985054077176 3.1449197004211364 0 0 0
154 1 20.43596701837577 11.002822468239785 4.716901084008174 0 0 0
155 1 22.00850732796854 12.574845579562712 3.1445956821272514 -1 0 0
156 1 1.5717048948968944 14.146627803778232 4.71687750092512 0 0 0
157 1 3.143761455267695 12.574755968776424 3.144803209588146 0 0 0
158 1 4.7168524932751605 14.14591075004873 4.717821995956917 0 0 0
159 1 6.288165645644267 12.574494125286499 3.14544171099373 0 0 0
160 1 7.859711025753316 14.146761156998856 4.71741268094962 0 0 0
161 1 9.431168966665698 12.57524685859739 3.143742336682423 0 0 0
162 1 11.00378275701193 14.145373691219929 4.718443860147223 0 0 0
163 1 12.576389688301255 12.575188035538902 3.144300914300576 0 0 0
164 1 14.147574647683976 14.14640782043139 4.718261138476456 0 0 0
165 1 15.719061157907703 12.574337898301794 3.146041500475198 0 0 0
166 1 17.2904766807582 14.145658348188109 4.7181534240446155 0 0 0
167 1 18.86364168584977 12.574730377561863 3.144913873008259 0 0 0
168 1 20.43590977299034 14.146604089522093 4.716905379947703 0 0 0
169 1 22.008484605137912 15.718854067673753 3.1445942876499577 -1 0 0
170 1 1.5715447309701989 17.290886871910732 4.716716885417129 0 0 0
171 1 3.1437805665838012 15.718692429766973 3.14482869919805 0 0 0
172 1 4.71656771735638 17.2901063297872 4.717473310922308 0 0 0
173 1 6.287844440345659 15.718770627133935 3.1450118698863085 0 0 0
174 1 7.8605266209941425 17.289923491755285 4.7177561000664445 0 0 0
175 1 9.432035156396308 15.718406053270554 3.145311972405654 0 0 0
176 1 11.00386631988357 17.289770704724635 4.717819517172982 0 0 0
177 1 12.575598053508584 15.718306351288954 3.1455246292409216 0 0 0
178 1 14.146981389407594 17.28965568596528 4.718027975219021 0 0 0
179 1 15.719539562745972 15.718533311324158 3.145351833787443 0 0 0
180 1 17.29080722010121 17.28986811665567 4.717720245106345 0 0 0
181 1 18.863606172895313 15.718588972942072 3.1449209937303113 0 0 0
182 1 20.436021928229184 17.290899980373414 4.716701566486899 0 0 0
183 1 22.00846729725299 18.863177876401704 3.1445090006854834 -1 0 0
184 1 1.5713328644930407 20.43533988502341 4.71662080205312 0 0 0
185 1 3.1437117118790776 18.862989428841768 3.14471929028416 0 0 0
186 1 4.716005302048705 20.435029389148276 4.716930813839982 0 0 0
187 1 6.288001458815564 18.86287009534615 3.144886453237016 0 0 0
188 1 7.860173512037004 20.434880053533615 4.7171399665394915 0 0 0
189 1 9.431947386967453 18.862744992862712 3.1449580115516866 0 0 0
190 1 11.003847760182577 20.43487611805734 4.717181830348037 0 0 0
191 1 12.575684817174912 18.862706151120253 3.145010840953498 0 0 0
192 1 14.14743164126503 20.43484950806848 4.717205434452218 0 0 0
193 1 15.719469153283617 18.862777047598364 3.1450085390777534 0 0 0
194 1 17.291488101259613 20.43502409377284 4.716993248513457 0 0 0
195 1 18.86365165812595 18.862918383598988 3.1448113770055093 0 0 0
196 1 20.43611836739195 20.435358434696287 4.7166395570241315 0 0 0
197 1 22.00853785683307 22.007580098822075 6.288671656046037 -1 -1 0
198 1 1.5714518380280822 1.5702596349007822 7.860738178748127 0 0 0
199 1 3.1437107027762425 22.00753153149851 6.288768968078276 0 -1 0
200 1 4.716124296826121 1.570443026087012 7.860931609748557 0 0 0
201 1 6.288050004941359 22.007482129484007 6.2889200068210505 0 -1 0
202 1 7.860054384675861 1.5707767616955708 7.86086634785194 0 0 0
203 1 9.432126160783286 22.007486414225596 6.289215350373154 0 -1 0
204 1 11.003919354641107 1.5713152527462195 7.861303985905336 0 0 0
205 1 12.575617950173363 22.007525857161998 6.289246549244105 0 -1 0
206 1 14.147708540521734 1.5709357578094498 7.860902150636259 0 0 0
207 1 15.719580708038114 22.00756423564789 6.288962552018517 0 -1 0
208 1 17.291506870608284 1.5705927412897192 7.861003172236072 0 0 0
209 1 18.863820424537128 22.007594285307043 6.288818867842296 0 -1 0
210 1 20.43619233292475 1.570294085797507 7.860761201599437 0 0 0
211 1 22.008561168990393 3.1424814439846016 6.288677596329982 -1 0 0
212 1 1.5716377278199316 4.714653534397902 7.860759193080086 0 0 0
213 1 3.1438663230947617 3.1426296400385256 6.288817616573912 0 0 0
214 1 4.716546637265531 4.71524287542767 7.861045919425644 0 0 0
215 1 6.288571545317633 3.143476977659856 6.289426755133701 0 0 0
216 1 7.861262749825494 4.717545203250696 7.862135268155995 0 0 0
217 1 9.432462248643585 3.1440596962592626 6.28979374557349 0 0 0
218 1 11.003802866488524 4.719952866586574 7.863754080829873 0 0 0
219 1 12.575202547754547 3.1442720076484445 6.289885374905541 0 0 0
220 1 14.14648818706603 4.717927877157218 7.862165101513208 0 0 0
221 1 15.719018174965672 3.143757460270553 6.289531753276143 0 0 0
222 1 17.291086666636936 4.715463650015175 7.861192697392364 0 0 0
223 1 18.86367313038196 3.1427520299720593 6.288896451347657 0 0 0
224 1 20.436164589857054 4.71468167016246 7.8607661082840234 0 0 0
225 1 22.008647573664145 6.286629277924698 6.288571656613756 -1 0 0
226 1 1.5717772930403775 7.8585353755161185 7.860453241634077 0 0 0
227 1 3.144401072179464 6.287088877185915 6.289044431244522 0 0 0
228 1 4.717724694802874 7.85945884402844 7.861345152445261 0 0 0
229 1 6.290287679679799 6.289323159669227 6.2910834992209725 0 0 0
230 1 7.866317317031956 7.86585431643615 7.866871214507768 0 0 0
231 1 9.43356853380439 6.289958745241671 6.291467781542072 0 0 0
232 1 11.001767203237726 7.8743970210431735 7.871785833754739 0 0 0
233 1 12.573588963841837 6.290595751384172 6.29208010589918 0 0 0
234 1 14.140106842512017 7.867506730007678 7.868644381389372 0 0 0
235 1 15.716782694697333 6.2900645532584765 6.291755483149555 0 0 0
236 1 17.290700955096288 7.85908192901879 7.860945030595021 0 0 0
237 1 18.863347208523184 6.287060575106591 6.288960085985615 0 0 0
238 1 20.436321265932342 7.858536379486459 7.860446541209899 0 0 0
239 1 22.00874873356888 9.4308479103027 6.288776839978661 -1 0 0
240 1 1.5723073567857573 11.0027376865006 7.860782811731631 0 0 0
241 1 3.1450964038730387 9.431292469003532 6.289446763096991 0 0 0
242 1 4.720429343890511 11.002728329270427 7.863107690559675 0 0 0
243 1 6.29168733224102 9.433564089987959 6.292287292150114 0 0 0
244 1 7.879821173972162 11.00271602430929 7.877451637542532 0 0 0
245 1 9.43017852350804 9.42967233470087 6.2877775745730915 0 0 0
246 1 11.003065760202384 11.00272023176926 7.82408003324662 0 0 0
247 1 12.576594530029084 9.4299476382185 6.289756745125449 0 0 0
248 1 14.125752241334505 11.002757636174076 7.883383686596268 0 0 0
249 1 15.715184051418685 9.434180117129548 6.293526286798305 0 0 0
250 1 17.28834430672986 11.002775126412843 7.862549668572983 0 0 0
251 1 18.862737712781627 9.431280311059936 6.289485374337498 0 0 0
252 1 20.43610336312627 11.002745078196735 7.860659134479217 0 0 0
253 1 22.008766921628872 12.574708732998033 6.2887787421519645 -1 0 0
254 1 1.5718036758217027 14.146946606861594 7.86045537500306 0 0 0
255 1 3.1451130537495855 12.574240259526507 6.289447484575951 0 0 0
256 1 4.717754404670962 14.146006377803335 7.861332187270323 0 0 0
257 1 6.291708598389905 12.571933257916106 6.2922728998350985 0 0 0
258 1 7.866367662762271 14.139575989323077 7.866853522931659 0 0 0
259 1 9.430207237338506 12.575819125475656 6.287763513711257 0 0 0
260 1 11.00182911759966 14.131035401985766 7.871764369458144 0 0 0
261 1 12.57663076628295 12.575602074382118 6.289744232582693 0 0 0
262 1 14.140171573487642 14.138014778848392 7.868640675812733 0 0 0
263 1 15.715221281466045 12.571430989095992 6.293518394866378 0 0 0
264 1 17.290768421013468 14.146484523574557 7.860931388728217 0 0 0
265 1 18.86276705353142 12.574296901121427 6.289472869303576 0 0 0
266 1 20.43636348131322 14.146969005045477 7.8604327925824355 0 0 0
267 1 22.008685630415968 15.71894128865221 6.288565254499804 -1 0 0
268 1 1.571659690558642 17.29083064960513 7.860765388313083 0 0 0
269 1 3.1444292493092925 15.718438529482883 6.289046981922909 0 0 0
270 1 4.716575682855112 17.290188472694876 7.861055773631571 0 0 0
271 1 6.290332993742504 15.716154867110223 6.291071225064308 0 0 0
272 1 7.861332681756807 17.287845408101447 7.862140159599094 0 0 0
273 1 9.433637469231348 15.715521598900668 6.2914478506402505 0 0 0
274 1 11.003875234666587 17.285464311184175 7.863753699550913 0 0 0
275 1 12.573658264574691 15.71494116921063 6.292067504766508 0 0 0
276 1 14.146542297060343 17.28758750765814 7.8621674417434155 0 0 0
277 1 15.716849983857228 15.715546519929548 6.291742908245712 0 0 0
278 1 17.291152535821787 17.29010180571315 7.861167344053659 0 0 0
279 1 18.863405757919807 15.718545425607587 6.2889327390780805 0 0 0
280 1 20.436208859118622 17.2908458250737 7.8607455341755825 0 0 0
281 1 22.008588037308638 18.863116242127987 6.2886769550310655 -1 0 0
282 1 1.5714539449274598 20.43523742279409 7.860751389663674 0 0 0
283 1 3.1438749243777018 18.8628871593886 6.2888357629092395 0 0 0
284 1 4.716125021837265 20.43496405653174 7.860944258707174 0 0 0
285 1 6.2885876795568825 18.861966990176157 6.289437166380681 0 0 0
286 1 7.860064784584875 20.434584305829937 7.860872362626011 0 0 0
287 1 9.432493498014994 18.86138990874946 6.289786257965644 0 0 0
288 1 11.003934210365461 20.434095041090245 7.86129834215243 0 0 0
289 1 12.575229497911863 18.861256352933562 6.289863246268218 0 0 0
290 1 14.147717541349666 20.43455848747458 7.860893469809569 0 0 0
291 1 15.71905594013781 18.86184260332 6.289509244768196 0 0 0
292 1 17.291529205377483 20.434959534308877 7.860990624557417 0 0 0
293 1 18.863721717097096 18.862873058919693 6.288868163075299 0 0 0
294 1 20.4362139894761 20.43526178213256 7.860755465072818 0 0 0
295 1 22.008630189392697 22.00751719406898 9.432745775719278 -1 -1 0
296 1 1.571502914342526 1.5702333536318076 11.004770333573154 0 0 0
297 1 3.143808405029627 22.00748081778803 9.432788041794387 0 -1 0
298 1 4.71616575620644 1.5704038308184827 11.00477033441082 0 0 0
299 1 6.288292719745722 22.007440928982028 9.432917284295407 0 -1 0
300 1 7.860496854325078 1.5709532843482796 11.004770335573884 0 0 0
301 1 9.431912974236397 22.007443188407915 9.43263940932933 0 -1 0
302 1 11.003959950898881 1.5699662900661122 11.00477033604037 0 0 0
303 1 12.575983997472767 22.00747846632352 9.432655011206336 0 -1 0
304 1 14.147331680486312 1.571182950554503 11.004770335601629 0 0 0
305 1 15.719449301371277 22.007515601286784 9.432952034569032 0 -1 0
306 1 17.29155102003919 1.5705343572606478 11.004770334539714 0 0 0
307 1 18.863894253998538 22.007528696240158 9.432805618871843 0 -1 0
308 1 20.436248547700416 1.570259541459342 11.004770333497813 0 0 0
309 1 22.00867100510005 3.142444023982274 9.432747401754062 -1 0 0
310 1 1.5716863005952584 4.71467568464042 11.004770334005945 0 0 0
311 1 3.1439814605225984 3.1426387641919638 9.432834365072392 0 0 0
312 1 4.71665856317404 4.715355513156781 11.004770334752541 0 0 0
313 1 6.288657130632349 3.1434605621702567 9.433147990908619 0 0 0
314 1 7.862450883722589 4.717986574139125 11.004770335945203 0 0 0
315 1 9.431623936859223 3.143961411474548 9.432320281313174 0 0 0
316 1 11.00409082757356 4.709137750557546 11.004770336416158 0 0 0
317 1 12.576278277809589 3.1441504332109673 9.43232119516784 0 0 0
318 1 14.145369167241173 4.718804487237284 11.00477033598292 0 0 0
319 1 15.719036031726048 3.1438079860234893 9.433223388745091 0 0 0
320 1 17.291198938751045 4.715450575932377 11.004770334953578 0 0 0
321 1 18.8637753251924 3.142713908489073 9.43284672046432 0 0 0
322 1 20.436264464782642 4.714684806677344 11.004770333931354 0 0 0
323 1 22.00885201239268 6.286677611290049 9.432717086399517 -1 0 0
324 1 1.5719816545375482 7.858879109314672 11.00477033501986 0 0 0
325 1 3.1444464928694664 6.287071944189321 9.432948268124303 0 0 0
326 1 4.717721871909941 7.860639283467421 11.004770335790743 0 0 0
327 1 6.289317902931039 6.288278890929241 9.433469302113284 0 0 0
328 1 7.863371951323927 7.864211866873547 11.00477033709537 0 0 0
329 1 9.432859992501001 6.2966569460496675 9.433868636162922 0 0 0
330 1 11.003898943966044 7.8163919020328105 11.004770337563857 0 0 0
331 1 12.575488522834538 6.296878363879355 9.433400141714825 0 0 0
332 1 14.143202967473277 7.867735321068423 11.004770337122812 0 0 0
333 1 15.718272022148245 6.288991929782404 9.43381778602885 0 0 0
334 1 17.29135446063331 7.85983431466558 11.00477033600111 0 0 0
335 1 18.863693748719392 6.2870290262259045 9.432864469237545 0 0 0
336 1 20.4365731387565 7.858734340699111 11.00477033497072 0 0 0
337 1 22.008981206672072 9.43049874049648 9.43237330001741 -1 0 0
338 1 1.5706206944216874 11.00270674984842 11.004770335921641 0 0 0
339 1 3.14402377951305 9.430162829551998 9.431897882971624 0 0 0
340 1 4.707472184745363 11.002712825160236 11.004770336665219 0 0 0
341 1 6.2934525588947485 9.4303472613412 9.43220172235946 0 0 0
342 1 7.8100776383948 11.002711825001665 11.004770337868973 0 0 0
343 1 9.454518141912352 9.451846523879077 9.455157192439982 0 0 0
344 1 20.43606100926933 20.435430992915183 20.437200687566392 0 0 0
345 1 12.551961281147289 9.4553502706352 9.457723663761422 0 0 0
346 1 14.18483888689123 11.002726719686155 11.004770338111234 0 0 0
347 1 15.719632760703098 9.429660781719775 9.43182468261232 0 0 0
348 1 17.298210171124605 11.00275772795033 11.00477033693729 0 0 0
349 1 18.86476656492061 9.430372793676014 9.432122707049512 0 0 0
350 1 20.43756922431079 11.002717563044977 11.00477033588792 0 0 0
351 1 22.009000975752027 12.574934928411857 9.432373252691553 -1 0 0
352 1 1.572008312138503 14.146535244911155 11.004770336000018 0 0 0
353 1 3.14403311852896 12.575268820536698 9.431898044907484 0 0 0
354 1 4.717748982387116 14.144768121202715 11.004770336828178 0 0 0
355 1 6.293480573218673 12.575066979085321 9.432208242724663 0 0 0
356 1 7.86339576372613 14.141157322724036 11.004770338088994 0 0 0
357 1 9.45453346635973 12.553513993352272 9.455171241139627 0 0 0
358 1 11.003955542690509 14.18885588349895 11.004770338654014 0 0 0
359 1 12.55199297816932 12.55003145587566 9.457721448123493 0 0 0
360 1 14.143275341747767 14.13768629175112 11.00477033812912 0 0 0
361 1 15.71968065513036 12.575857221930137 9.431824207045157 0 0 0
362 1 17.291436691725554 14.14568386592435 11.004770337004103 0 0 0
363 1 18.86480681785853 12.575116842703576 9.43211725067822 0 0 0
364 1 20.436621028205902 14.146708939638254 11.004770336001 0 0 0
365 1 22.00888490354466 15.718768677471244 9.43271430347371 -1 0 0
366 1 1.571704212907034 17.29073507627285 11.004770335195017 0 0 0
367 1 3.144480252134206 15.718353130101363 9.43294854676833 0 0 0
368 1 4.716700537340284 17.290010485658012 11.004770335982853 0 0 0
369 1 6.289371237695337 15.71710952929937 9.433455349171382 0 0 0
370 1 7.862531810803629 17.2873439037242 11.004770337183498 0 0 0
371 1 9.43295423723526 15.708671500211448 9.43386970667695 0 0 0
372 1 11.004169232055878 17.29617814607321 11.00477033771434 0 0 0
373 1 12.575559391050318 15.708492855176193 9.433411653550332 0 0 0
374 1 14.14543580034872 17.286638601014346 11.00477033723698 0 0 0
375 1 15.718353656474472 15.71652594899251 9.433816473761325 0 0 0
376 1 17.29127891659598 17.29007187942041 11.00477033619925 0 0 0
377 1 18.863763230515303 15.718479829689695 9.432844962246953 0 0 0
378 1 20.436306311593363 17.290778599577333 11.004770335194426 0 0 0
379 1 22.00868387820914 18.86301861347511 9.432748973399356 -1 0 0
380 1 1.571501289057352 20.43520107702831 11.004770334071855 0 0 0
381 1 3.1439916215817503 18.86276805504341 9.432843596653026 0 0 0
382 1 4.716170684467194 20.434953283012934 11.004770334909379 0 0 0
383 1 6.288690523888973 18.861884142418802 9.433155850391769 0 0 0
384 1 7.860514147152282 20.434352789564365 11.004770336068521 0 0 0
385 1 9.431679791248614 18.86137026640648 9.432327715083666 0 0 0
386 1 11.003982951094534 20.43538103449673 11.004770336563103 0 0 0
387 1 12.5763165383142 18.861260640671034 9.432321683523831 0 0 0
388 1 14.147346614612655 20.434261947261447 11.004770336150338 0 0 0
389 1 15.719079271777279 18.861701558727756 9.433214794954889 0 0 0
390 1 17.29157914971361 20.434961055984907 11.004770335082728 0 0 0
391 1 18.863822378682656 18.86279968527112 9.432832714353959 0 0 0
392 1 20.436260119043222 20.43522150921646 11.004770334023856 0 0 0
393 1 22.00863018943846 22.00751719433652 12.576794891399922 -1 -1 0
394 1 1.57145183798752 1.5702596352404516 14.148802488317695 0 0 0
395 1 3.1438084049426513 22.007480817998875 12.576752626322083 0 -1 0
396 1 4.7161242967789185 1.5704430263751576 14.148609059178105 0 0 0
397 1 6.288292719731233 22.007440929169498 12.576623386078625 0 -1 0
398 1 7.860054384610395 1.5707767620040187 14.148674323201327 0 0 0
399 1 9.431912974186808 22.00744318857745 12.576901262784064 0 -1 0
400 1 11.003919354590073 1.571315253015407 14.148236686219038 0 0 0
401 1 12.575983997480783 22.007478466488028 12.576885661062116 0 -1 0
402 1 14.147708540481707 1.5709357580389984 14.148638520685962 0 0 0
403 1 15.719449301438651 22.00751560147951 12.576588635968692 0 -1 0
404 1 17.291506870677132 1.5705927416197067 14.148537496765636 0 0 0
405 1 18.863894253993706 22.007528696480907 12.576735049375307 0 -1 0
406 1 20.43619233291346 1.5702940861824048 14.148779465648124 0 0 0
407 1 22.00867100516585 3.142444024182257 12.576793265268725 -1 0 0
408 1 1.5716377278164628 4.714653534678888 14.148781474772019 0 0 0
409 1 3.1439814604622667 3.1426387643810236 12.576706302908278 0 0 0
410 1 4.716546637244822 4.715242875701749 14.148494750242065 0 0 0
411 1 6.288657130662987 3.143460562315746 12.57639267928355 0 0 0
412 1 7.861262749741638 4.717545203472008 14.147405403728378 0 0 0
413 1 9.431623936809087 3.1439614116146686 12.577220390616274 0 0 0
414 1 11.003802866561823 4.719952866780676 14.145786592179263 0 0 0
415 1 12.576278277806203 3.144150433338755 12.577219476897621 0 0 0
416 1 14.146488187052737 4.71792787736444 14.147375570511619 0 0 0
417 1 15.719036031722693 3.1438079861841883 12.57631728163552 0 0 0
418 1 17.291086666656877 4.715463650283489 14.148347972472289 0 0 0
419 1 18.86377532512034 3.142713908676342 12.576693947648447 0 0 0
420 1 20.43616458981757 4.714681670450902 14.148774559755104 0 0 0
421 1 22.008852012459755 6.28667761144443 12.576823582215676 -1 0 0
422 1 1.5717772930555995 7.858535375814297 14.149087428221563 0 0 0
423 1 3.1444464927990996 6.2870719443687975 12.576592401388819 0 0 0
424 1 4.717724694756655 7.859458844307306 14.14819551928606 0 0 0
425 1 6.289317902938986 6.288278891015426 12.576071369646055 0 0 0
426 1 7.8663173168651195 7.8658543164944 14.142669459579967 0 0 0
427 1 9.432859992426776 6.296656946016121 12.57567203766919 0 0 0
428 1 11.001767203265077 7.8743970213786625 14.137754841283204 0 0 0
429 1 12.575488522946188 6.2968783638213806 12.576140532143608 0 0 0
430 1 14.140106842491054 7.8675067303021375 14.140896292805202 0 0 0
431 1 15.718272022201708 6.2889919299054835 12.575722886012803 0 0 0
432 1 17.29070095515868 7.859081929275235 14.148595641370319 0 0 0
433 1 18.863693748690732 6.287029026406592 12.5766762005009 0 0 0
434 1 20.43632126590682 7.858536379797554 14.149094128848132 0 0 0
435 1 22.008981206741666 9.43049874069028 12.577167370721746 -1 0 0
436 1 1.5723073567144268 11.002737686829322 14.148757859939414 0 0 0
437 1 3.144023779408623 9.430162829716727 12.577642788680917 0 0 0
438 1 4.720429343843795 11.002728329624679 14.146432982905958 0 0 0
439 1 6.29345255872749 9.430347261328588 12.577338951685096 0 0 0
440 1 7.879821174150004 11.002716024627583 14.132089037992232 0 0 0
441 1 9.454518141627437 9.451846523758064 12.554383483809248 0 0 0
442 1 11.00306576032168 11.002720232155472 14.185460644241676 0 0 0