LAMMPS data file via write_data, version 2 Aug 2023, timestep = 38, units = metal

691 atoms
3 atom types

0 22.009546999999998 xlo xhi
0 22.009546999999998 ylo yhi
0 22.009546999999998 zlo zhi

Masses

1 183.84
2 1.008
3 4.0026

Atoms # atomic

1 1 22.008367375814526 22.009142696532543 22.007268170891457 -1 -1 -1
2 1 1.5706394521115643 1.5711140286956098 1.56953887819378 0 0 0
3 1 3.1423318379084977 22.009263275403352 22.007267803931217 0 -1 -1
4 1 4.714251704027234 1.5711313060891707 1.569438447366979 0 0 0
5 1 6.286432687902458 22.00943326495573 22.00726726247888 0 -1 -1
6 1 7.858641636284511 1.5712246307950408 1.5694019424633785 0 0 0
7 1 9.430980848023598 22.009493112391304 22.00726719566004 0 -1 -1
8 1 11.003385793213695 1.5712144561772916 1.56937939906337 0 0 0
9 1 12.575707369684746 22.00941100913751 22.007267404623423 0 -1 -1
10 1 14.148222251149052 1.5710374809807084 1.5693846531801345 0 0 0
11 1 15.720375518905538 22.009253730922534 22.00726792776203 0 -1 -1
12 1 17.292893871523383 1.570885588783139 1.5693995257318039 0 0 0
13 1 18.86470951862282 22.009145176812154 22.007268239855353 0 -1 -1
14 1 20.43696058670828 1.5709416392057813 1.5694728536381353 0 0 0
15 1 22.008728556717195 3.1428703092987273 22.007267905599196 -1 0 -1
16 1 1.570649665074424 4.714896880808371 1.5693403654810094 0 0 0
17 1 3.1422209130316547 3.142803538864134 22.00726755808269 0 0 -1
18 1 4.713583884069673 4.714376410657289 1.5689608872947216 0 0 0
19 1 6.286165090745234 3.142667244022137 22.00726716982336 0 0 -1
20 1 7.858068113974066 4.714108788806277 1.5687294454139644 0 0 0
21 1 9.430927879156238 3.1426468802974967 22.007266992531665 0 0 -1
22 1 11.00346115739847 4.714063757857115 1.5686759177699023 0 0 0
23 1 12.575961360645293 3.1425117777556095 22.007267134062324 0 0 -1
24 1 14.149024335624057 4.713776190977077 1.5686341433249322 0 0 0
25 1 15.72097318270978 3.142322007053417 22.007267636620778 0 0 -1
26 1 17.294258897523047 4.71371350101105 1.5685603441939555 0 0 0
27 1 18.865506860933543 3.142390665307367 22.007267925856283 0 0 -1
28 1 20.437474299987624 4.714649442403344 1.569188588610667 0 0 0
29 1 22.00879687898522 6.287207592631472 22.007267672710974 -1 0 -1
30 1 1.5704436073425552 7.859613257358509 1.569229540102617 0 0 0
31 1 3.141972522129512 6.287092800430523 22.007267552155835 0 0 -1
32 1 4.713191231666806 7.859317068737329 1.5687702784157742 0 0 0
33 1 6.285230542193995 6.286312454753036 22.00726745221291 0 0 -1
34 1 7.856882856470743 7.858279840739323 1.5673079016282552 0 0 0
35 1 9.430456319799521 6.286054853268567 22.00726717654309 0 0 -1
36 1 11.003468619569347 7.858088370199685 1.5666839276469713 0 0 0
37 1 12.576565657101648 6.285861296340744 22.007267162352374 0 0 -1
38 1 14.15044485527136 7.8579039266143775 1.5667498143518404 0 0 0
39 1 15.722335635379054 6.285793941937313 22.007267304753597 0 0 -1
40 1 17.29467464476447 7.858945726365704 1.5683625635551903 0 0 0
41 1 18.866004776454773 6.2867521236291415 22.00726764633701 0 0 -1
42 1 20.43749775877819 7.8595233689970705 1.56912344895238 0 0 0
43 1 22.00857995859501 9.432163061556603 22.00726776234143 -1 0 -1
44 1 1.5700811174469924 11.004744070050796 1.5691798661207927 0 0 0
45 1 3.141618871140619 9.432119853834548 22.007267699350873 0 0 -1
46 1 4.712803020090221 11.004808318101459 1.5685929169567694 0 0 0
47 1 6.28487137376412 9.431890495629471 22.007267652574427 0 0 -1
48 1 7.856665234795887 11.005066148537995 1.566926857973326 0 0 0
49 1 9.429848860550718 9.431370183521578 22.00726744561586 0 0 -1
50 1 11.003289856378895 11.005098146573875 1.5644678310419975 0 0 0
51 1 12.577085565827788 9.431333583253531 22.00726746691614 0 0 -1
52 1 14.15039578960696 11.004962227834103 1.566637804324706 0 0 0
53 1 15.722543395955698 9.431685907743237 22.00726748047812 0 0 -1
54 1 17.2944037445568 11.004831693115229 1.568487089564136 0 0 0
55 1 18.865947910897134 9.432057795404868 22.00726767498017 0 0 -1
56 1 20.43718554346122 11.004741064115658 1.56915041513231 0 0 0
57 1 22.008228122434115 12.577260115681309 22.00726775443353 -1 0 -1
58 1 1.5697937920135618 14.149817633793688 1.5692164922430927 0 0 0
59 1 3.141300815864312 12.57740729592673 22.007267780094935 0 0 -1
60 1 4.712567807462718 14.150488024418767 1.5685297683396693 0 0 0
61 1 6.284574174079302 12.57795452415587 22.007267743443485 0 0 -1
62 1 7.8566343175568365 14.151574544954897 1.5671935162934099 0 0 0
63 1 9.429694914276274 12.578540573582611 22.007267707730968 0 0 -1
64 1 11.003154918416966 14.15152688775023 1.5670296228241574 0 0 0
65 1 12.576932240325727 12.578512622024887 22.007267736721634 0 0 -1
66 1 14.149925228361907 14.151541949272792 1.5672418378576676 0 0 0
67 1 15.722242819550791 12.577946024193883 22.0072676689862 0 0 -1
68 1 17.293979567022603 14.15040104046694 1.5686967921005672 0 0 0
69 1 18.865600176821193 12.5774228490045 22.007267759377925 0 0 -1
70 1 20.436803815808066 14.149809031461817 1.569259028359704 0 0 0
71 1 22.008000637722795 15.722039534272348 22.007268053058425 -1 0 -1
72 1 1.5698210713621539 17.294355685394738 1.5693587259865585 0 0 0
73 1 3.1412478602229807 15.722458537541375 22.007267819463237 0 0 -1
74 1 4.713044273754311 17.295190716682466 1.5688695392094774 0 0 0
75 1 6.284838051997804 15.723408471534588 22.007267509877593 0 0 -1
76 1 7.857861695685742 17.29544901593872 1.5687712423572684 0 0 0
77 1 9.430271682815496 15.723574936877002 22.007267491039386 0 0 -1
78 1 11.003222392358674 17.295400237415357 1.5687191628345352 0 0 0
79 1 12.576163168617157 15.72346193455454 22.007267584368925 0 0 -1
80 1 14.148542692666146 17.295310417342474 1.5688208119230775 0 0 0
81 1 15.72166149262182 15.723308820400566 22.00726792892866 0 0 -1
82 1 17.29339565542233 17.295028061714525 1.5689540065470844 0 0 0
83 1 18.865197218641576 15.72234384792773 22.007268100867613 0 0 -1
84 1 20.436534818376796 17.2942423953994 1.5694343820351508 0 0 0
85 1 22.008029183104888 18.866038264712518 22.00726825017446 -1 0 -1
86 1 1.570262421249385 20.437773807398067 1.5695830603600194 0 0 0
87 1 3.1417214222426306 18.86644941215163 22.007267915189896 0 0 -1
88 1 4.714090998810725 20.438025369070832 1.5694898903209589 0 0 0
89 1 6.285954962862234 18.866755191024545 22.007267432955476 0 0 -1
90 1 7.8585271670467165 20.438195804600355 1.5694024669283595 0 0 0
91 1 9.430761261051094 18.86683274545005 22.00726736530684 0 0 -1
92 1 11.003284494519901 20.43819186864303 1.5693760553781237 0 0 0
93 1 12.575757701008898 18.86676333362695 22.007267492379395 0 0 -1
94 1 14.148061062012674 20.438085058545955 1.5694115431008808 0 0 0
95 1 15.720587530753216 18.866612067028964 22.00726801981113 0 0 -1
96 1 17.292644811990126 20.437926357670317 1.569445513703499 0 0 0
97 1 18.864828326891843 18.86632583814749 22.007268275956747 0 0 -1
98 1 20.43651542541265 20.437712030665775 1.5695699081171848 0 0 0
99 1 22.008376556991422 22.009075321370943 3.141657776022042 -1 -1 0
100 1 1.5706402476129198 1.570946051372414 4.713596269019241 0 0 0
101 1 3.1422278238412193 22.009197053708878 3.141493952683422 0 -1 0
102 1 4.713991679709809 1.5707545510681582 4.713152679544131 0 0 0
103 1 6.286349438554681 22.009369309598668 3.1413342742143486 0 -1 0
104 1 7.858544398005638 1.5709681652509542 4.71301791454643 0 0 0
105 1 9.430948668176015 22.009487577047395 3.1412441361212933 0 -1 0
106 1 11.003368014021634 1.57111783812659 4.71295561380488 0 0 0
107 1 12.575700583370782 22.00944129540534 3.1412447446075915 0 -1 0
108 1 14.148307932598076 1.5708790443692373 4.712992292515022 0 0 0
109 1 15.720457278144016 22.00925616479854 3.141304735310902 0 -1 0
110 1 17.293264628601005 1.5705938576038614 4.713044867745255 0 0 0
111 1 18.864885919880745 22.009100784454166 3.141400243816256 0 -1 0
112 1 20.437003032115648 1.570809275042887 4.7135143115944045 0 0 0
113 1 22.00886762561947 3.1425813236271907 3.141176007264114 -1 0 0
114 1 1.570619457183101 4.714361347597153 4.712801352695286 0 0 0
115 1 3.142122180145903 3.1425493118541903 3.1410623968588403 0 0 0
116 1 4.712831740390856 4.713522923497957 4.711763579694001 0 0 0
117 1 6.285970037757677 3.1423393161586284 3.1407175987048435 0 0 0
118 1 7.857455303710329 4.713153047105434 4.711010683264619 0 0 0
119 1 9.43090374078046 3.1424684368303244 3.1406869471907597 0 0 0
120 1 11.003459033773876 4.713567873819771 4.711086007809377 0 0 0
121 1 12.576011327305293 3.1423464275655855 3.1406368293394524 0 0 0
122 1 14.149552187183232 4.712803576638741 4.711053359560336 0 0 0
123 1 15.721186650391342 3.141994002590988 3.140653068841556 0 0 0
124 1 17.296038944393665 4.7119847479696375 4.710420586248092 0 0 0
125 1 18.865910090360945 3.141979025073636 3.1406470211063993 0 0 0
126 1 20.438245109768335 4.713848438467215 4.712348685206779 0 0 0
127 1 22.008957359391708 6.287024925719411 3.1408943939673106 -1 0 0
128 1 1.5703841962902008 7.859447186868632 4.712531562851484 0 0 0
129 1 3.1417629794042257 6.286895148895267 3.140643872343812 0 0 0
130 1 4.712358456512426 7.858995570796238 4.711224518317209 0 0 0
131 1 6.284438711907853 6.2855920322119045 3.1388779728396576 0 0 0
132 1 7.854304805006937 7.85609199592857 4.705776167319257 0 0 0
133 1 9.430071699422033 6.285436471812777 3.1381566507225975 0 0 0
134 1 11.003144983245813 7.8564740941710465 4.703733886245601 0 0 0
135 1 12.576864751651982 6.285189569899991 3.1380181091406865 0 0 0
136 1 14.154225013426986 7.854646883372262 4.703030727866921 0 0 0
137 1 15.723651530706578 6.284564712943035 3.137608517463575 0 0 0
138 1 17.29654097757054 7.858124536759356 4.7098118983014805 0 0 0
139 1 18.866641902174152 6.286349943440236 3.140017266946399 0 0 0
140 1 20.43816512962074 7.859240167018762 4.712208160555437 0 0 0
141 1 22.00865560537523 9.432138522453691 3.1408080775315144 -1 0 0
142 1 1.5698228567405494 11.004778487959337 4.712413658592024 0 0 0
143 1 3.1413661987314865 9.432093351688874 3.140394889002589 0 0 0
144 1 4.711778806349306 11.004831996570207 4.710795717214973 0 0 0
145 1 6.284238633068006 9.431794888053986 3.138546812367387 0 0 0
146 1 7.854502643224149 11.00594861535621 4.7049468066698665 0 0 0
147 1 9.428806133300261 9.430692694155045 3.1330130461761803 0 0 0
148 1 11.002966348566332 11.005885128152201 4.691602785413401 0 0 0
149 1 12.578160817950527 9.430518405429535 3.132168361205206 0 0 0
150 1 14.152809217250969 11.005344458284464 4.703852662478257 0 0 0
151 1 15.723576463978565 9.431465959563512 3.137549192766118 0 0 0
152 1 17.295599537917795 11.005131418150436 4.710486314363501 0 0 0
153 1 18.866396122287362 9.4320272442657 3.1401294181480415 0 0 0
154 1 20.437563696212024 11.0048158090165 4.712340558889095 0 0 0
155 1 22.008210814577858 12.57732962645528 3.140879713681413 -1 0 0
156 1 1.569343799477049 14.150089779114165 4.712505689119974 0 0 0
157 1 3.1409398348005757 12.57749954828962 3.1402976200889263 0 0 0
158 1 4.711141141118663 14.15128449073325 4.7103841184163455 0 0 0
159 1 6.283608135505091 12.578353908987433 3.1379039202813113 0 0 0
160 1 7.8538393483479565 14.154192096275017 4.705025243361792 0 0 0
161 1 9.428563380618437 12.579604083261215 3.1336972820323528 0 0 0
162 1 11.002596919187313 14.152974559418142 4.705324773399506 0 0 0
163 1 12.577911434873421 12.579511479849687 3.1330679502973413 0 0 0
164 1 14.15225210204432 14.154375842342532 4.70539771351275 0 0 0
165 1 15.723027894974784 12.578362048031869 3.13813285429412 0 0 0
166 1 17.294773811168774 14.150944577325872 4.711176641799501 0 0 0
167 1 18.86589549666279 12.577551418024399 3.140325227835319 0 0 0
168 1 20.436911088636588 14.150020625987832 4.712653068211184 0 0 0
169 1 22.007911646130605 15.722170635158236 3.1410931054244533 -1 0 0
170 1 1.569394698618733 17.294723372194266 4.712931954793061 0 0 0
171 1 3.1408090445133703 15.722758426532792 3.1404137987491256 0 0 0
172 1 4.711988744603261 17.29616238948625 4.711550433893522 0 0 0
173 1 6.283890824093863 15.724317190685955 3.138528627804684 0 0 0
174 1 7.857393727162557 17.29617092980027 4.711430595151965 0 0 0
175 1 9.429941882203828 15.724263949462374 3.138401208191933 0 0 0
176 1 11.002944780575447 17.29608573972293 4.711142803244245 0 0 0
177 1 12.576208342814382 15.724084871629913 3.1385584516509173 0 0 0
178 1 14.148780443083274 17.29628259797026 4.711313465459909 0 0 0
179 1 15.722431973686243 15.724179792715441 3.1387652500138836 0 0 0
180 1 17.29416429967632 17.295910597468236 4.711787504014894 0 0 0
181 1 18.865382937896612 15.722518061119231 3.1407521215660767 0 0 0
182 1 20.436546740331103 17.294461093460292 4.713182689974784 0 0 0
183 1 22.00796592368805 18.86614017994398 3.14143514111148 -1 0 0
184 1 1.5702980681199192 20.43765260196114 4.713734067956716 0 0 0
185 1 3.1415008556202255 18.866621807928404 3.141076158564246 0 0 0
186 1 4.71387798539985 20.438040212311595 4.713308764014161 0 0 0
187 1 6.2857888619065285 18.866946745223288 3.140874890941492 0 0 0
188 1 7.858393026372627 20.438281925288496 4.713046911096934 0 0 0
189 1 9.43065261571849 18.867038746264363 3.1406558615137556 0 0 0
190 1 11.003194390063205 20.438375079170104 4.712958418498497 0 0 0
191 1 12.575709210242756 18.866994856926603 3.140723080536384 0 0 0
192 1 14.148069532660235 20.43833173938789 4.713056021384559 0 0 0
193 1 15.72074131327033 18.86691295881581 3.1407866486252995 0 0 0
194 1 17.29299556059044 20.438220136485985 4.713121121280544 0 0 0
195 1 18.864967736653472 18.86648478571111 3.1411385851828384 0 0 0
196 1 20.43652656308031 20.43761147222182 4.713715042453449 0 0 0
197 1 22.00840751145453 22.008947658316377 6.2859685014199655 -1 -1 0
198 1 1.5707271407418737 1.5708742749130262 7.858030159556448 0 0 0
199 1 3.1423296546486004 22.00895793972998 6.285863899408395 0 -1 0
200 1 4.714111984120937 1.5705943580889328 7.857817973770856 0 0 0
201 1 6.286113894038997 22.008994244311438 6.285365786953364 0 -1 0
202 1 7.857998805308309 1.5700250563254705 7.8571121785011835 0 0 0
203 1 9.430866505372782 22.009408091829098 6.285254043113991 0 -1 0
204 1 11.003352563606056 1.57108404596696 7.857326265589874 0 0 0
205 1 12.575644508389615 2.7916838525850313e-05 6.285267429989617 0 0 0
206 1 14.148465575604456 1.5710297919783935 7.857387989081777 0 0 0
207 1 15.72074879466533 22.009500603536768 6.285284946872532 0 -1 0
208 1 17.29313284168673 1.5707603245084354 7.8578110645170725 0 0 0
209 1 18.864856013529803 22.009023224654083 6.285772236233517 0 -1 0
210 1 20.436950841339712 1.5707971640928966 7.857991223324014 0 0 0
211 1 22.00889461481347 3.1424432025748685 6.285507153680593 -1 0 0
212 1 1.5707022447236312 4.714287500656385 7.857511012313761 0 0 0
213 1 3.142089617297276 3.142321938986942 6.285309628943689 0 0 0
214 1 4.7127721437975705 4.713431031574865 7.856769459968423 0 0 0
215 1 6.285189543504779 3.1412370111845864 6.28418359580978 0 0 0
216 1 7.8553883623941365 4.710067458189615 7.854114204096407 0 0 0
217 1 9.430861970966141 3.1420032468949572 6.284363448158856 0 0 0
218 1 11.003636101399453 4.713250017898628 7.855513697534408 0 0 0
219 1 12.57606446701468 3.1420369722683152 6.284262339443128 0 0 0
220 1 14.149887458728369 4.711205655027382 7.85587817127179 0 0 0
221 1 15.721753091473822 3.1410719355941623 6.284439449997243 0 0 0
222 1 17.295419100918682 4.712328497407574 7.856423429377235 0 0 0
223 1 18.865901336677155 3.141863542419764 6.285084513508242 0 0 0
224 1 20.438167993308365 4.713787653776587 7.857307901569694 0 0 0
225 1 22.009502481826665 6.286236805132336 6.284468421529865 -1 0 0
226 1 1.5699916588805756 7.858701038144864 7.856520605043072 0 0 0
227 1 3.140869001061593 6.285979359561503 6.283984298594728 0 0 0
228 1 4.709236607905582 7.857057865312942 7.854263437208137 0 0 0
229 1 6.281602892480821 6.282948524914259 6.280370455858676 0 0 0
230 1 7.8453189350207015 7.846584897720666 7.84395998390687 0 0 0
231 1 9.42880175830848 6.283595179335695 6.279244766639727 0 0 0
232 1 11.000197349760672 7.8542463712301425 7.841186585728091 0 0 0
233 1 12.577543424795879 6.2837015195595525 6.279544614590042 0 0 0
234 1 14.175070492907516 7.8373903029520795 7.8331227133882875 0 0 0
235 1 15.729687361509972 6.278924719791476 6.276520155102872 0 0 0
236 1 17.303870957851213 7.8536555019347585 7.851269224633106 0 0 0
237 1 18.869220805579538 6.284416699007799 6.282598687076113 0 0 0
238 1 20.44020213026466 7.857942452735695 7.855986613153859 0 0 0
239 1 22.00895495120832 9.43201789993437 6.284488886716066 -1 0 0
240 1 1.5691980249888664 11.004893515955215 7.856612783461916 0 0 0
241 1 3.1407163988759565 9.432034866482281 6.283844909267272 0 0 0
242 1 4.709550732578237 11.005247941856934 7.855027461360637 0 0 0
243 1 6.282643569373376 9.431762887898948 6.280618017769449 0 0 0
244 1 7.84969932543431 11.01139654320401 7.846156703769981 0 0 0
245 1 9.423575063969027 9.428247506552104 6.261223304224033 0 0 0
246 1 11.002880732119687 11.008495759221196 7.776483466356587 0 0 0
247 1 12.583836810868387 9.42593969044767 6.257108796515178 0 0 0
248 1 14.157027588056454 11.00793154856387 7.843870926227092 0 0 0
249 1 15.727371191327444 9.431126887363376 6.277802260365732 0 0 0
250 1 17.297992984836764 11.005635666339762 7.854695407534347 0 0 0
251 1 18.86798657110947 9.431897999021272 6.283319080386759 0 0 0
252 1 20.43837828407886 11.004883971468198 7.856556029941021 0 0 0
253 1 22.008058124374756 12.57754308785169 6.284609748425935 -1 0 0
254 1 1.568243479155699 14.150830571850369 7.856565344126612 0 0 0
255 1 3.139760827751985 12.57781717489898 6.283573562203968 0 0 0
256 1 4.707085458754371 14.153877063028123 7.853076240860809 0 0 0
257 1 6.280431769581401 12.579729992669423 6.278457984204835 0 0 0
258 1 7.8418330194694015 14.165336731835444 7.8392024109066405 0 0 0
259 1 9.422682531684506 12.5846606066262 6.265822856170051 0 0 0
260 1 10.999437229864064 14.153046022840053 7.845708780918663 0 0 0
261 1 12.582381705540298 12.584288592097495 6.261890258119393 0 0 0
262 1 14.16057697470013 14.167100559463995 7.84180135962976 0 0 0
263 1 15.724776660534365 12.579687038310666 6.2797822098061795 0 0 0
264 1 17.29569124933999 14.151420181785092 7.855651790974075 0 0 0
265 1 18.866579247378475 12.577856681740625 6.283697792369595 0 0 0
266 1 20.436943190898212 14.150406961036468 7.856877474433581 0 0 0
267 1 22.00756599547153 15.722541951049186 6.28499709428898 -1 0 0
268 1 1.569702179953679 17.294351868867356 7.857823355744649 0 0 0
269 1 3.1393760521671528 15.723798030672524 6.2836893229508375 0 0 0
270 1 4.713054028894437 17.295129768528266 7.857414493715867 0 0 0
271 1 6.2802112209379635 15.727799459860304 6.279342368083116 0 0 0
272 1 7.857190650291069 17.29680843646611 7.85611865331896 0 0 0
273 1 9.4291580193105 15.72559020474657 6.280220148056056 0 0 0
274 1 11.001745919631496 17.29652050180196 7.855590838975543 0 0 0
275 1 12.575716697886673 15.726038958197087 6.280367127553755 0 0 0
276 1 14.15080707688072 17.300362494294383 7.854089122641498 0 0 0
277 1 15.725231205208486 15.727474423966498 6.279996417850888 0 0 0
278 1 17.293485191484855 17.295181294613307 7.857287900042131 0 0 0
279 1 18.865755600903714 15.722870503542484 6.284628691835367 0 0 0
280 1 20.43629844254011 17.294166747180213 7.857912292580434 0 0 0
281 1 22.00799215936223 18.86595362445214 6.285845885796472 -1 0 0
282 1 1.5704366659078273 20.43740070995808 7.858165284753494 0 0 0
283 1 3.1417230466778867 18.866314771081637 6.285611585221305 0 0 0
284 1 4.714203622868088 20.437462904042665 7.858082412394003 0 0 0
285 1 6.285460119894516 18.86730856764876 6.2848524727516475 0 0 0
286 1 7.85820061251433 20.437932168915257 7.857446200869434 0 0 0
287 1 9.430388356304183 18.867365091643475 6.284263299038848 0 0 0
288 1 11.002915551123317 20.438514781265667 7.85734501756756 0 0 0
289 1 12.575397038574856 18.867573759588335 6.2844985037696945 0 0 0
290 1 14.148555075991245 20.439440941427886 7.85711754519035 0 0 0
291 1 15.721582224437203 18.868206127324655 6.2841523679934355 0 0 0
292 1 17.292810533316686 20.43802884625651 7.8578525757229585 0 0 0
293 1 18.864848476739997 18.866284337613557 6.285584644304318 0 0 0
294 1 20.43646455705962 20.437432011964063 7.858129944764528 0 0 0
295 1 22.00842121623217 22.00885819100907 9.430326222105506 -1 -1 0
296 1 1.5707589270455997 1.570856355599776 11.002494343061759 0 0 0
297 1 3.142442159137845 22.00881543180215 9.430306807085366 0 -1 0
298 1 4.714173839586086 1.5706087935964765 11.002493966100754 0 0 0
299 1 6.286340791696904 22.00854022290301 9.430230928530058 0 -1 0
300 1 7.858142940166634 1.5699988011689732 11.002493811826254 0 0 0
301 1 9.430549016131058 22.008842865393824 9.42980423313776 0 -1 0
302 1 11.003234212097235 1.570014503067185 11.002493706091608 0 0 0
303 1 12.575809686916239 0.0006635161986133122 9.42981935202076 0 0 0
304 1 14.148072277265843 1.57175180207816 11.002494059258709 0 0 0
305 1 15.720580731922475 0.00013305921919712704 9.430159374162528 0 0 0
306 1 17.293074781597383 1.570818561417535 11.002494471622942 0 0 0
307 1 18.864781254039286 22.008976198230652 9.430266198651642 0 -1 0
308 1 20.436923479962736 1.5708043918778243 11.002494585765305 0 0 0
309 1 22.008900868916935 3.1424430246322954 9.430157624378456 -1 0 0
310 1 1.5707310420210008 4.714335329439161 11.002494262093453 0 0 0
311 1 3.142224392984409 3.142406947948602 9.43010553275313 0 0 0
312 1 4.712889634607981 4.713810109644805 11.002494157504144 0 0 0
313 1 6.285389982504827 3.1415077970246066 9.429781358229908 0 0 0
314 1 7.855991477017361 4.711533873632759 11.002493882682398 0 0 0
315 1 9.429638620875727 3.139768914156473 9.428837437867584 0 0 0
316 1 11.002252095345103 4.705283723154351 11.002493488990874 0 0 0
317 1 12.57614599309517 3.142297378075381 9.429103533207309 0 0 0
318 1 14.147897205958255 4.713966282738037 11.002493677368262 0 0 0
319 1 15.721299950349787 3.141917489963146 9.430113083110935 0 0 0
320 1 17.29504551517536 4.712659049498217 11.0024940286285 0 0 0
321 1 18.865720679463937 3.1420368523839586 9.430042086432982 0 0 0
322 1 20.438089066804555 4.7138548282401205 11.002494145229665 0 0 0
323 1 5.441063653099253e-06 6.2862133728074845 9.429766369233239 0 0 0
324 1 1.5701149818257552 7.858908653623799 11.002494303056638 0 0 0
325 1 3.141139686739649 6.286248442331849 9.42967587107172 0 0 0
326 1 4.709913150084328 7.858825199982468 11.002494242859774 0 0 0
327 1 6.2820566411252745 6.283752065290157 9.42856216882621 0 0 0
328 1 7.847385732773738 7.854181622123277 11.002493707509892 0 0 0
329 1 9.423520894267757 6.275005694538457 9.423226746407284 0 0 0
330 1 10.999788191686385 7.8129471660446415 11.002493363628641 0 0 0
331 1 12.574962235634633 6.2869860459585425 9.427769189005891 0 0 0
332 1 14.159883339303866 7.849128356978326 11.002493090641007 0 0 0
333 1 15.726495850141106 6.2815192880389565 9.428358953695222 0 0 0
334 1 17.30172118376606 7.854810894042429 11.002493682464582 0 0 0
335 1 18.868584682977232 6.284686478267137 9.429269987286165 0 0 0
336 1 20.44008942285465 7.858018044526326 11.002493982152632 0 0 0
337 1 1.33330420820171e-05 9.431468606921054 9.429261539409037 0 0 0
338 1 1.5674601612594288 11.004980021385357 11.002494303351083 0 0 0
339 1 3.1380761972155473 9.431093343301159 9.428291721538185 0 0 0
340 1 4.696957812790145 11.006220143026615 11.002494260489328 0 0 0
341 1 6.274582035449099 9.426951415796971 9.42332318117454 0 0 0
342 1 7.75826173260706 11.010553675681203 11.002493294988605 0 0 0
343 1 9.3714398677785 9.396473549114274 9.359892903459839 0 0 0
344 1 20.436515679425494 20.437711976190347 20.43541966234188 0 0 0
345 1 12.649155529071693 9.361769271592358 9.331824613010946 0 0 0
346 1 14.241788024853925 11.002644102062948 11.002494250963414 0 0 0
347 1 15.746573243792303 9.420516679390788 9.418850636676563 0 0 0
348 1 17.31422849897968 11.004037594769626 11.002493980138592 0 0 0
349 1 18.873352465742663 9.429612641087884 9.427735431581137 0 0 0
350 1 20.441018680090753 11.004901525473013 11.002494115659193 0 0 0
351 1 22.007821943464098 12.577957322103941 9.429310484566598 -1 0 0
352 1 1.568633912461881 14.150428354832009 11.00249437837762 0 0 0
353 1 3.136851421526131 12.579255753068846 9.428037203901763 0 0 0
354 1 4.710021090159277 14.151126586725892 11.002494347628888 0 0 0
355 1 6.272014249144928 12.586800558462802 9.419439364464306 0 0 0
356 1 7.854151592636406 14.145985680440168 11.002493931264164 0 0 0
357 1 9.379630951006478 12.623078305914156 9.363825636678241 0 0 0
358 1 10.996287021111227 14.19693647378628 11.002494179221342 0 0 0
359 1 12.626866180247857 12.634033092269432 9.36395579417034 0 0 0
360 1 14.15108332900812 14.154650635677287 11.002494364710559 0 0 0
361 1 15.723208553924163 12.579958454211196 9.425651577853108 0 0 0
362 1 17.29342472329808 14.148918322495222 11.002494293721929 0 0 0
363 1 18.867845412931654 12.578531873218726 9.428131731709785 0 0 0
364 1 20.436404573247373 14.149845363865026 11.002494210235453 0 0 0
365 1 22.007510114635917 15.722214408317722 9.430075968932021 -1 0 0
366 1 1.5698334378796721 17.294129206433126 11.00249433662682 0 0 0
367 1 3.1405743618706436 15.722920578389742 9.429855655732103 0 0 0
368 1 4.71359725212503 17.29430955730319 11.002494056823794 0 0 0
369 1 6.284397406631202 15.723547954838919 9.429680300293864 0 0 0
370 1 7.859624391822167 17.291986768805288 11.002493850392488 0 0 0
371 1 9.429615155098446 15.719896715872073 9.426301182952018 0 0 0
372 1 11.001914686827828 17.304750841503637 11.002494002202068 0 0 0
373 1 12.579795374652935 15.738311476056744 9.423758226087145 0 0 0
374 1 14.149756308142658 17.29850992258865 11.002494159191707 0 0 0
375 1 15.72240925652675 15.72477307337314 9.429416436106038 0 0 0
376 1 17.293172193609756 17.294657096563324 11.002494364815528 0 0 0
377 1 18.86482910995896 15.722226420084432 9.430139484704469 0 0 0
378 1 20.436225053364304 17.293981975770834 11.002494495199493 0 0 0
379 1 22.008011219367134 18.865727258346258 9.43030456445738 -1 0 0
380 1 1.5704719045900921 20.43729612724193 11.002494329352176 0 0 0
381 1 3.142048300565326 18.865857630805557 9.430296082170482 0 0 0
382 1 4.714295546848913 20.437242980202118 11.002493872672455 0 0 0
383 1 6.286255348263182 18.865677757919457 9.430456476216335 0 0 0
384 1 7.8586521975214945 20.43679566524767 11.002493748204339 0 0 0
385 1 9.429889065747288 18.86668165406436 9.429045832259096 0 0 0
386 1 11.002803106769953 20.439738698873324 11.002493879594242 0 0 0
387 1 12.576268416542877 18.870499052336555 9.428991218953536 0 0 0
388 1 14.148416941688197 20.439412097498938 11.002494114354574 0 0 0
389 1 15.721097881982395 18.86753808443683 9.429866473730337 0 0 0
390 1 17.292725816671897 20.437909724179875 11.002494672584758 0 0 0
391 1 18.864615975026446 18.865979225322295 9.430238109366591 0 0 0
392 1 20.43643511794845 20.437346755613415 11.00249464061145 0 0 0
393 1 22.00842151221451 22.008858177669666 12.574662924223519 -1 -1 0
394 1 1.57072735958845 1.5708739674157695 14.146958400199425 0 0 0
395 1 3.1424422510565453 22.00881535726594 12.574681414370964 0 -1 0
396 1 4.714112334808852 1.5705944016776483 14.147169864567225 0 0 0
397 1 6.286341086211867 22.008540236675792 12.574756639756405 0 -1 0
398 1 7.857999140588394 1.5700251695969212 14.147875339109788 0 0 0
399 1 9.430549239024442 22.00884296242802 12.575183258499603 0 -1 0
400 1 11.003353092295935 1.571084537956179 14.14766115522519 0 0 0
401 1 12.5758099139846 0.0006637567660367454 12.57516851676722 0 0 0
402 1 14.148465886141937 1.571030242076818 14.147599957949382 0 0 0
403 1 15.720581035517684 0.00013320750809407017 12.57482942198433 0 0 0
404 1 17.293133108633096 1.5707605836994114 14.147177800853463 0 0 0
405 1 18.864781363009094 22.00897637634664 12.574723324760745 0 -1 0
406 1 20.436951137211256 1.5707971821074938 14.146998068002256 0 0 0
407 1 22.008900927211762 3.1424428965863336 12.574831115781128 -1 0 0
408 1 1.5707023353743306 4.714287430078288 14.147477413540033 0 0 0
409 1 3.1422243263272565 3.142406755090766 12.574882838139757 0 0 0
410 1 4.712772371632347 4.713431168326115 14.148218505300393 0 0 0
411 1 6.285390170577467 3.1415078903659843 12.575206464259821 0 0 0
412 1 7.855388707863899 4.710067436805941 14.15087336744468 0 0 0
413 1 9.429638819349199 3.139768960691971 12.576150057834758 0 0 0
414 1 11.003636668459757 4.713250685667076 14.149473162724375 0 0 0
415 1 12.57614609060757 3.142297913975955 12.575883705919715 0 0 0
416 1 14.149887562462185 4.711206513153632 14.149108835186018 0 0 0
417 1 15.72130023658532 3.141917673894132 12.574874998332424 0 0 0
418 1 17.295419264784204 4.712328780348731 14.148564535788411 0 0 0
419 1 18.86572078285137 3.1420368827781777 12.574946717078397 0 0 0
420 1 20.438168049549652 4.713787774223784 14.147680652216152 0 0 0
421 1 5.41589428030001e-06 6.286213409978368 12.575221962929113 0 0 0
422 1 1.569991644770694 7.858700914911677 14.148467919560275 0 0 0
423 1 3.1411397304395448 6.286248534661943 12.57531258262209 0 0 0
424 1 4.709236546622725 7.857058095880016 14.150724732218142 0 0 0
425 1 6.282056884498791 6.283752253003196 12.576425632390787 0 0 0
426 1 7.845318491005053 7.846584139370685 14.161028603104208 0 0 0
427 1 9.423521186485472 6.275005625892111 12.581760518791956 0 0 0
428 1 11.000199327917418 7.854248214018924 14.16379927787611 0 0 0
429 1 12.574962367312708 6.2869873380781245 12.57721691370162 0 0 0
430 1 14.175070170776365 7.837391655061285 14.171863385910795 0 0 0
431 1 15.726495826349229 6.281519704087652 12.57662817860214 0 0 0
432 1 17.303871107854036 7.853655552684301 14.15371842344202 0 0 0
433 1 18.868584757809042 6.28468657263383 12.57571789498762 0 0 0
434 1 20.440202148516423 7.857942358295913 14.149001435812671 0 0 0
435 1 1.3297305587726339e-05 9.431468613932541 12.575726802790793 0 0 0
436 1 1.569198049439505 11.004893545261556 14.148375891033819 0 0 0
437 1 3.138076168405825 9.431093358136279 12.576696976177129 0 0 0
438 1 4.709550871631645 11.005247975657047 14.149960843047673 0 0 0
439 1 6.274582349542529 9.42695158662628 12.581664954651313 0 0 0
440 1 7.8496994851980055 11.011396935391753 14.158832067560933 0 0 0
441 1 9.371438062427723 9.39647090133525 12.645097600938325 0 0 0