LAMMPS data file via write_data, version 2 Aug 2023, timestep = 20, units = metal

689 atoms
3 atom types

0 22.009546999999998 xlo xhi
0 22.009546999999998 ylo yhi
0 22.009546999999998 zlo zhi

Masses

1 183.84
2 1.008
3 4.0026

Atoms # atomic

1 1 0.0006622941634806862 22.009000074407744 22.00954328773581 0 -1 -1
2 1 1.5728993851197937 1.571584087178913 1.5721370671718335 0 0 0
3 1 3.1448709623044864 22.009134220449685 22.009543163346663 0 -1 -1
4 1 4.717161813857699 1.5715795513515756 1.5720247224100554 0 0 0
5 1 6.289396692159331 22.009234681436944 22.00954285309229 0 -1 -1
6 1 7.8617370954290395 1.5716749867625168 1.5720495095440596 0 0 0
7 1 9.433904233026155 22.009225201835697 22.009542734072422 0 -1 -1
8 1 11.0061549245825 1.57168241200189 1.5721071282740615 0 0 0
9 1 12.578213347192337 22.00913159627789 22.009542798302693 0 -1 -1
10 1 14.150321105242508 1.5716616145156554 1.5721579599840658 0 0 0
11 1 15.722298596212122 22.009016469005825 22.009542891752314 0 -1 -1
12 1 17.294268388973514 1.5716303464589871 1.5722121314479278 0 0 0
13 1 18.866176919149034 22.008955872143186 22.009543220430995 0 -1 -1
14 1 20.43824284968862 1.5715747646265483 1.5721916382455072 0 0 0
15 1 0.0007878841296734679 3.143611208394429 22.00954322814676 0 0 -1
16 1 1.5728852972570404 4.715683599310182 1.5720787311818678 0 0 0
17 1 3.1449814940641008 3.1435986717161475 22.00954317545015 0 0 -1
18 1 4.71705399037673 4.715540145329184 1.5720724458232325 0 0 0
19 1 6.289367449733946 3.1435573715238276 22.00954300901215 0 0 -1
20 1 7.861588660409964 4.715507255037539 1.571972302563931 0 0 0
21 1 9.433968528151354 3.143667564591315 22.009542952144503 0 0 -1
22 1 11.006201965430245 4.715722041566743 1.5721701607277847 0 0 0
23 1 12.578277399003214 3.1437232788342477 22.009543006399284 0 0 -1
24 1 14.150333320479866 4.715835934029338 1.5723130542207224 0 0 0
25 1 15.722308514427002 3.14376405831455 22.009543067605886 0 0 -1
26 1 17.294220705479518 4.715962587415076 1.572307804606014 0 0 0
27 1 18.86621795140713 3.1437693696779707 22.009543260573643 0 0 -1
28 1 20.438332276339956 4.7157801277392055 1.5720944788261357 0 0 0
29 1 0.0007466751804454051 6.2878996472020505 22.0095429064058 0 0 -1
30 1 1.5727651863641596 7.859987754203114 1.5720434368946437 0 0 0
31 1 3.144768710079578 6.2876829178846405 22.009542919262003 0 0 -1
32 1 4.716714552290109 7.859725984705422 1.5718481104263393 0 0 0
33 1 6.288876043871655 6.287338103031281 22.009542906426557 0 0 -1
34 1 7.860802150674331 7.859214064093948 1.571339784666683 0 0 0
35 1 9.433774386784036 6.287509576415574 22.00954285383207 0 0 -1
36 1 11.006041363881264 7.859581470616623 1.5716823580954733 0 0 0
37 1 12.578324589063284 6.287671888910248 22.009542904480064 0 0 -1
38 1 14.150502698487387 7.859673541361732 1.5722137441403758 0 0 0
39 1 15.722375281795568 6.287845240698383 22.009542934636865 0 0 -1
40 1 17.294034106690216 7.860223843116967 1.572290721901061 0 0 0
41 1 18.866188656802514 6.28802030041546 22.009543000922164 0 0 -1
42 1 20.43821598918449 7.860125270882485 1.5721084842509618 0 0 0
43 1 0.0006138625652013551 9.432220121963526 22.00954275206886 0 0 -1
44 1 1.572597214555427 11.004404398176852 1.5720331160100192 0 0 0
45 1 3.1446133024342893 9.432140639027404 22.009542725311377 0 0 -1
46 1 4.716518332392115 11.004466893732648 1.5717434310962497 0 0 0
47 1 6.288618674719783 9.431963175103975 22.009542736672298 0 0 -1
48 1 7.8606742536602425 11.004513725719034 1.5709441650092528 0 0 0
49 1 9.433204455502747 9.431695976286884 22.009542744324456 0 0 -1
50 1 11.005877450097314 11.00456918612238 1.569971327444681 0 0 0
51 1 12.578447437221392 9.431740399642973 22.00954277909979 0 0 -1
52 1 14.149825918516372 11.004438266581198 1.5724254275212388 0 0 0
53 1 15.721933696472528 9.432270179429104 22.009542747844105 0 0 -1
54 1 17.2937900093005 11.004287483267387 1.572321109766481 0 0 0
55 1 18.866006689923292 9.432254417689737 22.00954279783844 0 0 -1
56 1 20.43803001442108 11.004327776256543 1.5721306307909593 0 0 0
57 1 0.00042864322642242213 12.576515048695542 22.009542652277283 0 0 -1
58 1 1.5724074002178061 14.148779698069266 1.572043675447592 0 0 0
59 1 3.1444317261494894 12.576731464133973 22.009542660848375 0 0 -1
60 1 4.716379506146465 14.149229110392394 1.5717847926164379 0 0 0
61 1 6.288446776516021 12.577027050885423 22.009542603682956 0 0 -1
62 1 7.860498646709158 14.149909530698354 1.5711543713218112 0 0 0
63 1 9.433051312407882 12.57735345458697 22.009542592350478 0 0 -1
64 1 11.00598036509379 14.149195114880563 1.5717884902361927 0 0 0
65 1 12.578337897378777 12.577062762642647 22.009542603161872 0 0 -1
66 1 14.150191947484453 14.148826838505434 1.5724031749677858 0 0 0
67 1 15.721846874585275 12.57638861467914 22.009542603768203 0 0 -1
68 1 17.293736596835608 14.148311670750674 1.5723863531598483 0 0 0
69 1 18.865822687136625 12.576350591788414 22.009542704916885 0 0 -1
70 1 20.43784788958627 14.148487820914562 1.5721690536056019 0 0 0
71 1 0.0003035817843777886 15.72072465446303 22.009542758313344 0 0 -1
72 1 1.5724204827864776 17.292985443774953 1.5721029978170715 0 0 0
73 1 3.144368845949803 15.721163822686593 22.00954274009981 0 0 -1
74 1 4.716645292439153 17.29343992470659 1.571995124510332 0 0 0
75 1 6.28854394060789 15.721731237957677 22.009542583027226 0 0 -1
76 1 7.861407510134484 17.29344238845741 1.5719585264535783 0 0 0
77 1 9.433648948142126 15.721391255928424 22.00954247330689 0 0 -1
78 1 11.00599051723672 17.293173265284732 1.5720584868522718 0 0 0
79 1 12.578144338252836 15.721027233050656 22.009542483341114 0 0 -1
80 1 14.150153713319417 17.292775702623963 1.5722580569786533 0 0 0
81 1 15.722004906336599 15.720583846100766 22.00954260859497 0 0 -1
82 1 17.293807552312273 17.292362785969395 1.5724475751277405 0 0 0
83 1 18.865779146274587 15.720464092779276 22.00954279686356 0 0 -1
84 1 20.43782716152921 17.29260101308151 1.5722365284790967 0 0 0
85 1 0.0004040082973565958 18.864861216552804 22.00954314654142 0 0 -1
86 1 1.5726608401390325 20.436982977179262 1.5721464494021051 0 0 0
87 1 3.1446400986596217 18.865192485989244 22.009543093048535 0 0 -1
88 1 4.717007987788576 20.437249112557982 1.5720183678258752 0 0 0
89 1 6.28917221419453 18.86539289544499 22.009542772657227 0 0 -1
90 1 7.861608295718165 20.43729545645862 1.572029200640387 0 0 0
91 1 9.43378887263497 18.865299703824398 22.009542579674676 0 0 -1
92 1 11.006060672261722 20.437162541859546 1.5720816462645346 0 0 0
93 1 12.578146840022507 18.865033083035577 22.00954262389402 0 0 -1
94 1 14.150251933823283 20.43695221554622 1.5721480178408758 0 0 0
95 1 15.72216198196917 18.86475849909849 22.00954276703543 0 0 -1
96 1 17.294159517420187 20.436762914778814 1.5722139012656609 0 0 0
97 1 18.865885692347774 18.864572364143726 22.009543113989583 0 0 -1
98 1 20.438038837504298 20.43676412037546 1.5722259543599015 0 0 0
99 1 0.0007602799403884909 22.008928956667795 3.1442569971832968 0 -1 0
100 1 1.5731030687970928 1.571525580716543 4.716292013879202 0 0 0
101 1 3.14496931656953 22.009099078219773 3.144151614023183 0 -1 0
102 1 4.7172288253246215 1.571630477835767 4.716082623940267 0 0 0
103 1 6.289399836995298 22.00920878938315 3.1440510789150897 0 -1 0
104 1 7.861784907605427 1.571650534091686 4.716099220388408 0 0 0
105 1 9.433946545343824 22.009238516183405 3.144124968134501 0 -1 0
106 1 11.006296435489602 1.5717365233566962 4.716280982154745 0 0 0
107 1 12.578264096030766 22.009136908689367 3.1442104851610297 0 -1 0
108 1 14.150461923357033 1.5717353782330457 4.716354757962629 0 0 0
109 1 15.722326593351664 22.008997739905393 3.1442952605650594 0 -1 0
110 1 17.2943407745859 1.5716175015947527 4.716509731455519 0 0 0
111 1 18.866186457027723 22.00888255057603 3.1443948222928744 0 -1 0
112 1 20.438522016961866 1.5713870493121944 4.71634732882107 0 0 0
113 1 0.0010302962440817457 3.1436483328054896 3.144247226361864 0 0 0
114 1 1.5736005906045833 4.715822322885974 4.716348284838518 0 0 0
115 1 3.145265308507367 3.1437355253491437 3.144274022551715 0 0 0
116 1 4.717935902600937 4.716146526521904 4.716609826259443 0 0 0
117 1 6.289430922763673 3.143534360754874 3.1439761316883916 0 0 0
118 1 7.861746945704148 4.715444046693496 4.715846250422754 0 0 0
119 1 9.4341168783812 3.1437166277107647 3.1442134643690545 0 0 0
120 1 11.00651847458983 4.716076720745984 4.71674536640454 0 0 0
121 1 12.578348447853317 3.143832876298763 3.1443548229261133 0 0 0
122 1 14.150211031429382 4.716414755213753 4.7170614746089115 0 0 0
123 1 15.72227937242814 3.14392237126747 3.144497325698143 0 0 0
124 1 17.29406275248458 4.716285146735487 4.716871207238651 0 0 0
125 1 18.866274407783465 3.143798730241609 3.144406287840814 0 0 0
126 1 20.438828621917356 4.71561808462385 4.716176667446205 0 0 0
127 1 0.0009978339374624625 6.287878774918929 3.1441335477181602 0 0 0
128 1 1.57335811520485 7.860004632273861 4.7161596734720375 0 0 0
129 1 3.1450242404698248 6.2877019310923075 3.1440719701739845 0 0 0
130 1 4.717048094428233 7.859654281985001 4.715709363611018 0 0 0
131 1 6.289058092639678 6.287364631654341 3.143842010199407 0 0 0
132 1 7.860407088981859 7.858643293982606 4.714435223987953 0 0 0
133 1 9.433879788511826 6.287524411639156 3.143896750558741 0 0 0
134 1 11.005795501519808 7.859932509367186 4.715723065536319 0 0 0
135 1 12.578312222634258 6.287911815145639 3.1446852375856804 0 0 0
136 1 14.149961520189413 7.860409378952299 4.717693663251275 0 0 0
137 1 15.722129586610926 6.288210122090192 3.144863746834725 0 0 0
138 1 17.294240623869477 7.860184792681721 4.716462575124244 0 0 0
139 1 18.866363477149054 6.287968755691929 3.144209893884379 0 0 0
140 1 20.43870496098843 7.860038923696349 4.716193030362448 0 0 0
141 1 0.0008216773606245208 9.432214310201891 3.144149498733871 0 0 0
142 1 1.573062605924063 11.004396139775809 4.7161393399083025 0 0 0
143 1 3.1448269360260697 9.432157266950243 3.1439395624116284 0 0 0
144 1 4.716796317654769 11.004491697551634 4.7154804857222805 0 0 0
145 1 6.288601580643284 9.431902964005365 3.1430316642073364 0 0 0
146 1 7.860453805951962 11.004622573427463 4.712641536955119 0 0 0
147 1 9.432459188366032 9.431068382977994 3.140905849141374 0 0 0
148 1 11.004889098394543 11.00515964110633 4.704007123332903 0 0 0
149 1 12.578601992588403 9.431237116236039 3.1429564243299044 0 0 0
150 1 14.147665733418874 11.004796773302226 4.718417412113527 0 0 0
151 1 15.721543410636025 9.432517329694326 3.1449801098519217 0 0 0
152 1 17.29354401930406 11.004275142897143 4.716879895994781 0 0 0
153 1 18.866062756542394 9.432283469106945 3.1443479971813924 0 0 0
154 1 20.43837356363328 11.004316442400395 4.716307028380179 0 0 0
155 1 0.0005791131783149864 12.576487113002534 3.1441812678703425 0 0 0
156 1 1.572796112023834 14.14873745358657 4.716196105433065 0 0 0
157 1 3.144596163782679 12.57671640029066 3.14391146181834 0 0 0
158 1 4.716534537460979 14.14933680301068 4.715545815214078 0 0 0
159 1 6.288351521492026 12.577132365488874 3.1429206657835023 0 0 0
160 1 7.859860849636118 14.150831606962369 4.713695932026195 0 0 0
161 1 9.432154912964245 12.578221510602699 3.1406065483448073 0 0 0
162 1 11.00632558624249 14.148629871518853 4.716165056258562 0 0 0
163 1 12.578502735504305 12.577541835105768 3.143994164913591 0 0 0
164 1 14.14888560130508 14.147591697838942 4.718510407622999 0 0 0
165 1 15.721473521337773 12.576149265305826 3.1450449967256313 0 0 0
166 1 17.293404905231693 14.147995215086848 4.717027174627151 0 0 0
167 1 18.865819287821594 12.576277840920117 3.144427675185802 0 0 0
168 1 20.438059838596374 14.148442839217042 4.716391286799215 0 0 0
169 1 0.0004264807030580142 15.720683907280378 3.1442592984837865 0 0 0
170 1 1.5728383103777444 17.292726896504583 4.716434679407449 0 0 0
171 1 3.144498707285867 15.721141466895482 3.1440171279411033 0 0 0
172 1 4.717244394181508 17.29289553705039 4.716346489522682 0 0 0
173 1 6.288575726354654 15.721782994320312 3.143528928983257 0 0 0
174 1 7.86147557027336 17.293499252712678 4.715820237016895 0 0 0
175 1 9.433819987339056 15.721343134007515 3.143902812806537 0 0 0
176 1 11.006047713621463 17.29301760168413 4.7162434363504495 0 0 0
177 1 12.578101002747625 15.720893440570327 3.1443910509401123 0 0 0
178 1 14.150079314121603 17.29229893052946 4.716716480995567 0 0 0
179 1 15.72154807954036 15.719988578733574 3.145199075602166 0 0 0
180 1 17.293368933775795 17.291652907875914 4.717272214509763 0 0 0
181 1 18.865717397039493 15.720309278042677 3.144570658954766 0 0 0
182 1 20.437878186320415 17.292373392866565 4.716635181623019 0 0 0
183 1 0.0005203806313265421 18.86470055182805 3.1443771641239935 0 0 0
184 1 1.5728140978452374 20.436872464276114 4.716343042560109 0 0 0
185 1 3.1448194291229625 18.86500747857807 3.144236528113527 0 0 0
186 1 4.717030648930199 20.437084245029336 4.716081758970844 0 0 0
187 1 6.289177311638192 18.86538330370598 3.1439573480538248 0 0 0
188 1 7.861615107694811 20.437234549989018 4.716074984271437 0 0 0
189 1 9.433840599695733 18.865262531006657 3.1440802560773276 0 0 0
190 1 11.00613184591542 20.43711826787719 4.716209282024346 0 0 0
191 1 12.578173397796448 18.864934317970864 3.1442554133981258 0 0 0
192 1 14.150366393768158 20.43679886710547 4.716332673193466 0 0 0
193 1 15.722122221920216 18.86452342404778 3.1444779843426782 0 0 0
194 1 17.294137353528225 20.43647036114583 4.716593259939101 0 0 0
195 1 18.865862835390068 18.86437890110961 3.1445869520855365 0 0 0
196 1 20.43820127453996 20.43662943297023 4.71648180624898 0 0 0
197 1 0.0010159124452958032 22.008786948940816 6.288493932264808 0 -1 0
198 1 1.573416757174477 1.5714792623925997 7.860542849470383 0 0 0
199 1 3.14506388755955 22.009010659621854 6.288287108262777 0 -1 0
200 1 4.717273521904271 1.5715598921624707 7.860256122825957 0 0 0
201 1 6.289158883131563 22.009067735985237 6.287922082736813 0 -1 0
202 1 7.861223783586141 1.570960575817562 7.859755522958736 0 0 0
203 1 9.433991542223943 22.00915251203282 6.288155670624411 0 -1 0
204 1 11.006615309484634 1.5712490757427562 7.8602209750581205 0 0 0
205 1 12.57851946635446 22.0090602222151 6.288223827005059 0 -1 0
206 1 14.15090035652809 1.571502840957558 7.860278018229264 0 0 0
207 1 15.722510060302707 22.008785413589266 6.288427316347199 0 -1 0
208 1 17.294721978784192 1.5711858984423923 7.860564404345323 0 0 0
209 1 18.86643783146578 22.008637795816384 6.2885259117916785 0 -1 0
210 1 20.438877530915747 1.571197932200938 7.86055532061343 0 0 0
211 1 0.0014890146712489938 3.1435009057778793 6.288379932714225 0 0 0
212 1 1.5741742055305794 4.71583185426192 7.860539434805321 0 0 0
213 1 3.145491677660684 3.143740043805894 6.2883224760289504 0 0 0
214 1 4.717953061499772 4.716036622314407 7.860342804967401 0 0 0
215 1 6.289373591143728 3.1435586897814654 6.287849130156882 0 0 0
216 1 7.860756605650294 4.714592440918071 7.8587954680413725 0 0 0
217 1 9.434354838926971 3.143673221007454 6.28839928379706 0 0 0
218 1 11.00758965513659 4.715677499829879 7.861279487035916 0 0 0
219 1 12.578701190732728 3.1440644619537594 6.288494176777024 0 0 0
220 1 14.150564209227197 4.717208640538997 7.861306753468269 0 0 0
221 1 15.722407156213395 3.14414160846013 6.288774694329208 0 0 0
222 1 17.29537680973236 4.715140922345593 7.860264089914486 0 0 0
223 1 18.866855992775463 3.1433467598243205 6.2883445133768685 0 0 0
224 1 20.439622066653946 4.715315823410572 7.86033887451965 0 0 0
225 1 0.002068424528857345 6.287618966020914 6.2881081804757715 0 0 0
226 1 1.5747928588762894 7.859861848952852 7.86020151553047 0 0 0
227 1 3.146468385734134 6.288247614891081 6.288617616818358 0 0 0
228 1 4.720056264509096 7.86097542415037 7.86073426970987 0 0 0
229 1 6.29151962894144 6.289475531695681 6.28951552144847 0 0 0
230 1 7.868770106983911 7.866678584499276 7.863236254270558 0 0 0
231 1 9.434103496816874 6.287500231888574 6.288246606044629 0 0 0
232 1 11.004199973943418 7.8613686875596 7.863735356564547 0 0 0
233 1 12.578252254080873 6.289756692248509 6.290509115045839 0 0 0
234 1 14.1479735886958 7.866257418921145 7.867376474385811 0 0 0
235 1 15.721210432174914 6.28960223561763 6.290231243437406 0 0 0
236 1 17.29732550495524 7.8581071118043475 7.858708620493298 0 0 0
237 1 18.867366049364367 6.287302416532685 6.287861895326228 0 0 0
238 1 20.440684643214713 7.859183132828742 7.859706201656002 0 0 0
239 1 0.0017654287995678857 9.43216737163832 6.288230344800111 0 0 0
240 1 1.5742614281771687 11.004404464038418 7.8603879527232765 0 0 0
241 1 3.14582955472758 9.432271741718274 6.288146749377234 0 0 0
242 1 4.718518758897812 11.004518696120694 7.8606351414181 0 0 0
243 1 6.288724920703273 9.431726559097656 6.286133552907856 0 0 0
244 1 7.859354333092358 11.004551487971256 7.853696008306213 0 0 0
245 1 9.429271227662175 9.42838613903014 6.280624841288157 0 0 0
246 1 11.005020186980298 11.00636636293182 7.805511242703059 0 0 0
247 1 12.576146108936447 9.431239594297883 6.288234810787256 0 0 0
248 1 14.147049550213543 11.004986407883852 7.865236728979452 0 0 0
249 1 15.721310030972639 9.432761514977747 6.28925949090535 0 0 0
250 1 17.29499441879689 11.004661351282829 7.861035386593062 0 0 0
251 1 18.86678825382815 9.432256124954762 6.288340778284947 0 0 0
252 1 20.439768052619588 11.004365446303575 7.860238003998483 0 0 0
253 1 0.0012705417909526138 12.576512718715472 6.288284093335566 0 0 0
254 1 1.5736234842434569 14.148793709812985 7.860243496743708 0 0 0
255 1 3.1454212282080456 12.576616337931224 6.2881108280207085 0 0 0
256 1 4.718784531782601 14.148419213367559 7.860338422938894 0 0 0
257 1 6.288324610734968 12.577449478186633 6.285989011882368 0 0 0
258 1 7.8662628591350465 14.145254983108307 7.860622949119508 0 0 0
259 1 9.428507771733797 12.581921872494771 6.279664468237601 0 0 0
260 1 11.007617537801268 14.148383996248423 7.862557793346638 0 0 0
261 1 12.5762897747682 12.577382502553204 6.295548205967671 0 0 0
262 1 14.14285016328736 14.14169440992352 7.8678433974718125 0 0 0
263 1 15.720526726920824 12.575726064064435 6.28974099423926 0 0 0
264 1 17.29263164396494 14.147500569652822 7.861174016847758 0 0 0
265 1 18.866139700481053 12.576325653443535 6.288424711855605 0 0 0
266 1 20.4386390228762 14.14863830109279 7.860247585354293 0 0 0
267 1 0.0008621422162125252 15.720616075172154 6.288426962017638 0 0 0
268 1 1.573151172477237 17.29252900799908 7.86064079182837 0 0 0
269 1 3.145487849324716 15.720645363280083 6.288471709154277 0 0 0
270 1 4.717261506405614 17.29288776136498 7.8602177349264055 0 0 0
271 1 6.290363999683515 15.720259517785847 6.288644046721738 0 0 0
272 1 7.860895995924874 17.293972517784056 7.859224524821904 0 0 0
273 1 9.434176166931296 15.721472810121767 6.288297898230279 0 0 0
274 1 11.00680320948997 17.29340663324366 7.860547586827037 0 0 0
275 1 12.577937157442335 15.720401685830597 6.288890769940101 0 0 0
276 1 14.149823472872793 17.291114450963192 7.861049330511911 0 0 0
277 1 15.7197923676956 15.7179739602226 6.290919458739493 0 0 0
278 1 17.29365069740734 17.291621994135614 7.861003861574249 0 0 0
279 1 18.865480977574354 15.719942233542849 6.288969412652698 0 0 0
280 1 20.43813648267532 17.292210001801056 7.860796835704945 0 0 0
281 1 0.0007582085359417658 18.86456972099359 6.288589016182009 0 0 0
282 1 1.573079700583094 20.43670784821133 7.860582887549574 0 0 0
283 1 3.144958020637306 18.864859794966485 6.2883441454542135 0 0 0
284 1 4.717064081984487 20.43701486294332 7.860258827097334 0 0 0
285 1 6.289114791445115 18.86520223561244 6.287887733549925 0 0 0
286 1 7.861222296008141 20.437394900121177 7.859883409449211 0 0 0
287 1 9.433973064091001 18.865228159384298 6.288227173116388 0 0 0
288 1 11.006381944897129 20.43721689818585 7.860180724174536 0 0 0
289 1 12.5783895728008 18.864783191654727 6.28828917956428 0 0 0
290 1 14.15061990801088 20.43651078609916 7.86034200740203 0 0 0
291 1 15.72198587472376 18.86386141241877 6.288852317619647 0 0 0
292 1 17.294252511124444 20.43625300318681 7.8607127988195 0 0 0
293 1 18.86602640992545 18.864224806998187 6.288730577878638 0 0 0
294 1 20.438412844629244 20.436453377914148 7.86067545285364 0 0 0
295 1 0.001244549429159048 22.008683100716553 9.432677654454874 0 -1 0
296 1 1.5735804245801515 1.571446627824186 11.004769310404663 0 0 0
297 1 3.1453083276729874 22.008938343639684 9.432629003833474 0 -1 0
298 1 4.717470479552882 1.571639820980815 11.004769390312442 0 0 0
299 1 6.289138516510315 22.009011126703236 9.432351791605624 0 -1 0
300 1 7.861238938455046 1.5705090037763316 11.004769411846706 0 0 0
301 1 9.433759411256888 22.008739554272992 9.432217999958521 0 -1 0
302 1 11.006726324508293 1.5694098484815802 11.00476948558819 0 0 0
303 1 12.578854908868758 22.008692071886625 9.432263730303283 0 -1 0
304 1 14.150727418086953 1.5712446425184619 11.004769584238765 0 0 0
305 1 15.722549831289408 22.0085081553516 9.432669809856954 0 -1 0
306 1 17.294850770716966 1.5710168406970666 11.004769625325071 0 0 0
307 1 18.866618110726467 22.008465043900607 9.432704175441947 0 -1 0
308 1 20.439032097954374 1.5711200768137772 11.00476949689472 0 0 0
309 1 0.001875043196607659 3.1434376899815493 9.432644013905293 0 0 0
310 1 1.5745046837696084 4.715890868904322 11.004769436157975 0 0 0
311 1 3.145880431918881 3.1438670493008103 9.432686224549672 0 0 0
312 1 4.7185836805767964 4.71660577558511 11.004769481415241 0 0 0
313 1 6.289393037795665 3.1433090841699824 9.432178376850691 0 0 0
314 1 7.860777918329545 4.7127465069710555 11.004769470089762 0 0 0
315 1 9.433239290282172 3.1402174134445264 9.43163600627936 0 0 0
316 1 11.007301940459794 4.7050597944535655 11.004769518134696 0 0 0
317 1 12.579631644242005 3.142924299122171 9.431853567709833 0 0 0
318 1 14.15049177058505 4.716043231694935 11.004769576468957 0 0 0
319 1 15.722957270939196 3.1434064376320365 9.432700214799034 0 0 0
320 1 17.295769703759483 4.714965885919825 11.004769627776486 0 0 0
321 1 18.867277313300114 3.143109036233806 9.432607357058389 0 0 0
322 1 20.43995912006264 4.715271326946437 11.004769568299702 0 0 0
323 1 0.0029414403478238878 6.287636936172446 9.432535120631607 0 0 0
324 1 1.5756400473413077 7.860210350408732 11.004769396254824 0 0 0
325 1 3.1472743111786956 6.288541056694427 9.432808883405842 0 0 0
326 1 4.721235774083425 7.862637264215884 11.004769321129839 0 0 0
327 1 6.291133051930385 6.2887083592459865 9.431801033381811 0 0 0
328 1 7.862853545523047 7.858778745699793 11.004769256416404 0 0 0
329 1 9.43000970261624 6.2770057266985155 9.429630778888892 0 0 0
330 1 11.000284453329316 7.806956698728832 11.00476942540171 0 0 0
331 1 12.580658568399151 6.292421718221071 9.433988715789903 0 0 0
332 1 14.155854267213522 7.859217064880827 11.004769425816818 0 0 0
333 1 15.724674237585623 6.286777088562891 9.432435587008767 0 0 0
334 1 17.299285593370083 7.858454615729963 11.004769443330147 0 0 0
335 1 18.868631662125985 6.286915866271716 9.432300992882125 0 0 0
336 1 20.44159415640451 7.859277919185261 11.004769479958112 0 0 0
337 1 0.0035320903212486283 9.431771263296225 9.432218629122087 0 0 0
338 1 1.5743030919794556 11.004433580656956 11.004769384350581 0 0 0
339 1 3.1471612276786693 9.431875494453381 9.431886050622385 0 0 0
340 1 4.712442861866014 11.004658660417041 11.004769258546546 0 0 0
341 1 6.296746646435877 9.433790198420857 9.430022685253386 0 0 0
342 1 7.815980334994357 11.005414683250205 11.004769248602317 0 0 0
343 1 9.429771395692224 9.414355277677416 9.445657030066378 0 0 0
344 1 20.438039047820805 20.43676415376085 20.43731353134307 0 0 0
345 1 12.572646666863161 9.424149981138338 9.422531599255313 0 0 0
346 1 14.220296360311904 11.003522235128171 11.004769387483831 0 0 0
347 1 15.733497811036338 9.425959314816124 9.427679206249183 0 0 0
348 1 17.31024048071781 11.003878288725879 11.004769326206496 0 0 0
349 1 18.87168292531545 9.430481154280557 9.431203172962075 0 0 0
350 1 20.442655494992714 11.004366289283153 11.00476939303452 0 0 0
351 1 0.0022806745768692337 12.576763482847612 9.432248901637733 0 0 0
352 1 1.5741244393060474 14.148400917480663 11.00476934228147 0 0 0
353 1 3.1462483533522474 12.57714387640251 9.43183060464447 0 0 0
354 1 4.719592525920167 14.146935439296835 11.0047691462 0 0 0
355 1 6.294686003680555 12.576310007799623 9.429587384853182 0 0 0
356 1 7.859605254565907 14.153185356991111 11.004768989231096 0 0 0
357 1 9.420695230406531 12.60313509109129 9.438092589970308 0 0 0
358 1 11.006959298758302 14.180392644865695 11.004769151542344 0 0 0
359 1 12.562917713055267 12.558503449876518 9.450164879317692 0 0 0
360 1 14.144771514001775 14.143836554605834 11.004769135813763 0 0 0
361 1 15.717344560161543 12.576024333838667 9.431020651295725 0 0 0
362 1 17.292193794462516 14.145552919369662 11.004769269478402 0 0 0
363 1 18.867929718192354 12.577134370695576 9.431451630673838 0 0 0
364 1 20.438689935861095 14.148120863701392 11.004769367581128 0 0 0
365 1 0.0012030178390580234 15.720322845720814 9.432731257142704 0 0 0
366 1 1.57339959266207 17.292366993499357 11.004769367078996 0 0 0
367 1 3.1460636317994837 15.720314160315102 9.432736917153685 0 0 0
368 1 4.717870174939385 17.29221386589051 11.004769225000835 0 0 0
369 1 6.290183499513022 15.7209080978098 9.431382621469782 0 0 0
370 1 7.860601941468909 17.295794509024564 11.004769064860154 0 0 0
371 1 9.432122724836534 15.72959251372522 9.431298139253022 0 0 0
372 1 11.007306391362679 17.298722163218343 11.004769086173933 0 0 0
373 1 12.578716599511006 15.717392306146028 9.431707561292662 0 0 0
374 1 14.148957948606512 17.29071086915179 11.004769187120141 0 0 0
375 1 15.720739213468297 15.718518708516394 9.433428968477157 0 0 0
376 1 17.29360513844645 17.29128772985446 11.004769358353435 0 0 0
377 1 18.86562731973599 15.719622810999706 9.433015291852302 0 0 0
378 1 20.438289337065733 17.292092267649195 11.004769384178967 0 0 0
379 1 0.0010000857641849338 18.864412904316048 9.432734196702441 0 0 0
380 1 1.5732241914575706 20.436634116086474 11.004769325572108 0 0 0
381 1 3.14531219751381 18.864582052740282 9.432691017899023 0 0 0
382 1 4.717250910382604 20.436856677985574 11.004769312615402 0 0 0
383 1 6.289099781986356 18.865361449109205 9.432186931481029 0 0 0
384 1 7.8611740563982035 20.437717264267174 11.004769258275402 0 0 0
385 1 9.433442254554572 18.867271500868686 9.432036511091356 0 0 0
386 1 11.006519968739303 20.43780987553006 11.004769284224006 0 0 0
387 1 12.578846745812095 18.86492623313523 9.432053684321673 0 0 0
388 1 14.150406980014182 20.436278571242934 11.004769374291067 0 0 0
389 1 15.721957356041802 18.863660128623707 9.43290014064593 0 0 0
390 1 17.29429852233831 20.436143972147136 11.004769430877076 0 0 0
391 1 18.8661203945893 18.864022675060514 9.43282556426148 0 0 0
392 1 20.438524060689762 20.43638429685951 11.004769389959115 0 0 0
393 1 0.001244642538983913 22.008683024129592 12.57686116274247 0 -1 0
394 1 1.5734168913387705 1.5714790574899153 14.148996012493342 0 0 0
395 1 3.1453084662542086 22.0089382371449 12.576909641153643 0 -1 0
396 1 4.717273660643867 1.5715596705230475 14.149282657575931 0 0 0
397 1 6.289138597730601 22.0090110095603 12.57718696188155 0 -1 0
398 1 7.861223983224957 1.5709603327195991 14.149783429698715 0 0 0
399 1 9.433759602441706 22.00873940340698 12.577320777495101 0 -1 0
400 1 11.00661546087604 1.5712487990316164 14.149317899938708 0 0 0
401 1 12.578854989464544 22.008691928896443 12.577275174406282 0 -1 0
402 1 14.150900598282004 1.5715025659235595 14.149261186084852 0 0 0
403 1 15.722550024882546 22.008508041710826 12.576869327921857 0 -1 0
404 1 17.294722263889465 1.571185694494228 14.148974830852511 0 0 0
405 1 18.86661830417705 22.00846497416175 12.576834830093635 0 -1 0
406 1 20.43887780623407 1.5711977326785929 14.148983742521134 0 0 0
407 1 0.0018750964152009322 3.143437563146616 12.576894886658389 0 0 0
408 1 1.5741743134223747 4.71583159350401 14.148999461978413 0 0 0
409 1 3.1458805426298966 3.1438669785778477 12.576852540415556 0 0 0
410 1 4.71795309054752 4.716036411279275 14.149195967161083 0 0 0
411 1 6.289393031358731 3.143309015599313 12.577360511099364 0 0 0
412 1 7.860756647767244 4.714592258434639 14.150743408118593 0 0 0
413 1 9.433239394559687 3.1402173405294014 12.57790293747947 0 0 0
414 1 11.00758971103397 4.715677360240823 14.148259351079778 0 0 0
415 1 12.579631681263578 3.1429241883602157 12.577685510448662 0 0 0
416 1 14.150564393233788 4.717208344141824 14.148232392942903 0 0 0
417 1 15.722957380933876 3.14340632746699 12.576839106076912 0 0 0
418 1 17.29537697555777 4.715140675129724 14.149275144451638 0 0 0
419 1 18.867277415220617 3.143108946827456 12.576931802607726 0 0 0
420 1 20.439622260252747 4.715315536008374 14.149200164282592 0 0 0
421 1 0.0029414728064264244 6.2876367566931455 12.577003888544693 0 0 0
422 1 1.5747928823715618 7.859861642898418 14.14933744755116 0 0 0
423 1 3.1472743682494637 6.288540853177383 12.576729965445018 0 0 0
424 1 4.72005621775188 7.860975147360105 14.14880441249161 0 0 0
425 1 6.291132996018144 6.288708174891982 12.577737739061467 0 0 0
426 1 7.868770119047384 7.866678365037363 14.146302339271983 0 0 0
427 1 9.430009810971642 6.277005592673118 12.579908017985764 0 0 0
428 1 11.00420021728127 7.8613684856748245 14.145803265869185 0 0 0
429 1 12.580658665036156 6.292421509423439 12.575550204845557 0 0 0
430 1 14.147973857591047 7.866257083321163 14.142162460621607 0 0 0
431 1 15.72467439642329 6.286776831579914 12.577103545142009 0 0 0
432 1 17.297325676675204 7.85810683187153 14.150830367976004 0 0 0
433 1 18.868631773778244 6.286915693028455 12.577238117354662 0 0 0
434 1 20.440684763055916 7.859182941642392 14.149832761429963 0 0 0
435 1 0.0035320667299455653 9.431771268735385 12.57732022710609 0 0 0
436 1 1.574261449388977 11.004404392963435 14.14915071155485 0 0 0
437 1 3.1471612693585165 9.431875480713886 12.577652594960798 0 0 0
438 1 4.7185187513112785 11.004518529656865 14.148903156134576 0 0 0
439 1 6.296746524492383 9.433790138937402 12.57951577065632 0 0 0
440 1 7.859354171428518 11.004551313699126 14.155842375832169 0 0 0