LAMMPS data file via write_data, version 2 Aug 2023, timestep = 53, units = metal

689 atoms
3 atom types

0 22.009546999999998 xlo xhi
0 22.009546999999998 ylo yhi
0 22.009546999999998 zlo zhi

Masses

1 183.84
2 1.008
3 4.0026

Atoms # atomic

1 1 22.00720941902966 22.009543839603403 0.001214426945704962 -1 -1 0
2 1 1.569725646647908 1.572082921939109 1.5733632112036657 0 0 0
3 1 3.1417295500171507 22.0095438398237 0.0014498565037367633 0 -1 0
4 1 4.713885899599379 1.5720531093765724 1.5734518212354367 0 0 0
5 1 6.285981010470258 22.00954384004867 0.001433835446598483 0 -1 0
6 1 7.858153706613033 1.5720233646327315 1.5733241110677563 0 0 0
7 1 9.430306768310631 22.009543840068446 0.0012559270402806371 0 -1 0
8 1 11.002485162324927 1.5720080683571123 1.573083665012945 0 0 0
9 1 12.574647707871222 22.00954383996732 0.0010315301366515955 0 -1 0
10 1 14.146807549572294 1.5720095464290078 1.5728666718962054 0 0 0
11 1 15.718925129449675 22.009543839683264 0.0008983448776446687 0 -1 0
12 1 17.291101046863847 1.5720095316392182 1.5728028787155879 0 0 0
13 1 18.86313194757722 22.009543839555054 0.0009413957434735999 0 -1 0
14 1 20.435215612282676 1.5720821838770058 1.5730471460521633 0 0 0
15 1 22.00715741860796 3.144126966409128 0.0012052126277309276 -1 0 0
16 1 1.5696801415021162 4.71622904102684 1.5734180459640073 0 0 0
17 1 3.141656250523929 3.1440419968247117 0.0015608692857255147 0 0 0
18 1 4.713788067491097 4.716130426049051 1.5737711355393103 0 0 0
19 1 6.2859337860329525 3.1439923581932847 0.0015421640976477791 0 0 0
20 1 7.858113696547771 4.716043363610717 1.5735433647553987 0 0 0
21 1 9.430284634694411 3.143992211788522 0.0012877151208087008 0 0 0
22 1 11.002447768813315 4.716012502954387 1.5730690952248745 0 0 0
23 1 12.574618665089382 3.1440190420854535 0.0009502001039706225 0 0 0
24 1 14.146784790191216 4.715996659372427 1.5726667721574488 0 0 0
25 1 15.7188994069366 3.144076737181592 0.0007440011374605363 0 0 0
26 1 17.291303476027615 4.715950762363305 1.5724453394077158 0 0 0
27 1 18.86313243401584 3.1441054094631298 0.0008219541353300877 0 0 0
28 1 20.43525224231594 4.716219008995132 1.5729323004150313 0 0 0
29 1 22.00706940913301 6.288364253917394 0.0011964827015342038 -1 0 0
30 1 1.5696963010704372 7.8605067269956175 1.5735342566197719 0 0 0
31 1 3.141489549248324 6.2882094935593065 0.0017619980254740012 0 0 0
32 1 4.713748291060122 7.860417774263646 1.5740640579247906 0 0 0
33 1 6.285477781623871 6.287810374926978 0.0020244513860020776 0 0 0
34 1 7.857590746536859 7.8597940929836225 1.5736708279799165 0 0 0
35 1 9.430176062845382 6.28793860409204 0.0013516075623251206 0 0 0
36 1 11.00240247086823 7.859908406490925 1.5725982546554078 0 0 0
37 1 12.574623644427122 6.287980628848884 0.0005822526254227156 0 0 0
38 1 14.14755137954413 7.859562294144019 1.5711783879108518 0 0 0
39 1 15.719139059103513 6.288002538836221 6.74965282982563e-05 0 0 0
40 1 17.291366769123034 7.860289587510034 1.5720104731344358 0 0 0
41 1 18.86308139736389 6.288351352771397 0.0005499246695197781 0 0 0
42 1 20.435248576396248 7.86048232751001 1.572854851005823 0 0 0
43 1 22.00701458151467 9.432631776620083 0.001197644681870535 -1 0 0
44 1 1.569704221524749 11.004770339809681 1.5735763070892408 0 0 0
45 1 3.141450492606237 9.432570903961995 0.0019151953341038867 0 0 0
46 1 4.713801716498934 11.004770340004198 1.5741772770144564 0 0 0
47 1 6.285465100843996 9.432419929653623 0.002463520954088742 0 0 0
48 1 7.858007589270677 11.004770340042036 1.5740995390331096 0 0 0
49 1 9.429693955840037 9.431974899439826 0.0016926830022879079 0 0 0
50 1 11.002379191958125 11.004770339958249 1.5702094091390422 0 0 0
51 1 12.574932688219057 9.432042861445186 22.009125261337637 0 0 -1
52 1 14.147316108648198 11.004770339770456 1.5706788493192154 0 0 0
53 1 15.718911350896892 9.43256973884913 22.00899503146646 0 0 -1
54 1 17.291331503912815 11.004770339688674 1.57186031202816 0 0 0
55 1 18.86299508445882 9.43263629871676 0.0003912155888944783 0 0 0
56 1 20.435239336730305 11.004770339788005 1.5728335267001432 0 0 0
57 1 22.007014581365862 12.576908903047592 0.0011976446891641982 -1 0 0
58 1 1.5696963008956182 14.149033952733145 1.5735342566248594 0 0 0
59 1 3.1414504925383033 12.576969776026534 0.0019151952545960953 0 0 0
60 1 4.713748290844255 14.14912290575835 1.5740640579495333 0 0 0
61 1 6.2854651007573095 12.577120750507413 0.0024635208945952376 0 0 0
62 1 7.857590746347576 14.149746587196754 1.573670827914889 0 0 0
63 1 9.429693955732745 12.577565780627461 0.0016926829034327748 0 0 0
64 1 11.002402470558048 14.149632273552362 1.5725982545961945 0 0 0
65 1 12.574932688021766 12.577497818374415 22.009125261289505 0 0 -1
66 1 14.14755137926311 14.149978385519827 1.5711783878765697 0 0 0
67 1 15.718911350733318 12.57697094072346 22.00899503137949 0 0 -1
68 1 17.291366768791303 14.149251091913134 1.5720104731202227 0 0 0
69 1 18.862995084273397 12.576904380756192 0.0003912155496729428 0 0 0
70 1 20.435248576115796 14.149058351977985 1.5728548510133609 0 0 0
71 1 22.00706940880316 15.721176425582295 0.0011964826425054362 -1 0 0
72 1 1.569680141234414 17.293311638559427 1.5734180459956961 0 0 0
73 1 3.1414895490452075 15.721331186270477 0.00176199794990813 0 0 0
74 1 4.713788067283114 17.293410253855942 1.5737711354931982 0 0 0
75 1 6.2854777814368425 15.721730305111508 0.0020244512911892945 0 0 0
76 1 7.858113696278924 17.293497316522412 1.5735433647069397 0 0 0
77 1 9.430176062565089 15.7216020759869 0.001351607497913269 0 0 0
78 1 11.002447768523748 17.293528177048373 1.573069095114149 0 0 0
79 1 12.574623644044475 15.721560050951858 0.0005822525084316475 0 0 0
80 1 14.146784789822432 17.2935440202465 1.5726667720521275 0 0 0
81 1 15.719139058702524 15.72153814064706 6.749640230660241e-05 0 0 0
82 1 17.291303475703916 17.293589917006205 1.572445339359576 0 0 0
83 1 18.863081396958446 15.72118932657208 0.0005499246182044843 0 0 0
84 1 20.435252241985015 17.293321670312658 1.5729323003882294 0 0 0
85 1 22.007157418391248 18.865413712902914 0.0012052125636608272 -1 0 0
86 1 1.569725646466841 20.437457757464745 1.5733632111624942 0 0 0
87 1 3.1416562503536394 18.86549868286325 0.0015608692643457117 0 0 0
88 1 4.71388589951654 20.43748757046302 1.5734518212559199 0 0 0
89 1 6.285933785851671 18.865548321877913 0.0015421640031326612 0 0 0
90 1 7.858153706528353 20.43751731554139 1.573324111031476 0 0 0
91 1 9.430284634502428 18.86554846834198 0.001287714988595941 0 0 0
92 1 11.002485162213095 20.437532611640226 1.5730836650006115 0 0 0
93 1 12.574618664793284 18.86552163776339 0.0009502000256232265 0 0 0
94 1 14.146807549383652 20.43753113315008 1.5728666718453128 0 0 0
95 1 15.71889940655275 18.865463942245817 0.0007440010936150862 0 0 0
96 1 17.29110104676587 20.4375311475543 1.5728028786633104 0 0 0
97 1 18.86313243369927 18.865435269690234 0.0008219540686752915 0 0 0
98 1 20.435215612146035 20.43745849523691 1.5730471460636055 0 0 0
99 1 22.0072519326704 22.00954383962843 3.145193633943256 -1 -1 0
100 1 1.5696832519057704 1.572068814778423 4.717279840139685 0 0 0
101 1 3.1417983628929447 22.00954383981636 3.1453536634498738 0 -1 0
102 1 4.713819979478498 1.572106857586612 4.717305887207407 0 0 0
103 1 6.285987107213806 22.009543840075008 3.145299673861057 0 -1 0
104 1 7.858068835474105 1.572043351874211 4.7171705401778725 0 0 0
105 1 9.430308820645886 22.009543840042603 3.145132291598378 0 -1 0
106 1 11.002491774448188 1.5719699989643456 4.716989213845884 0 0 0
107 1 12.574686207381655 22.009543839937308 3.1449223163392164 0 -1 0
108 1 14.146928485796849 1.5719694789218508 4.716781406589231 0 0 0
109 1 15.719036104751694 22.009543839707934 3.144793798452765 0 -1 0
110 1 17.2914772577365 1.5719072231188327 4.716678408131261 0 0 0
111 1 18.86330855603212 22.009543839555846 3.144874557469489 0 -1 0
112 1 20.43530685700454 1.5720610096917866 4.717123117746689 0 0 0
113 1 22.00727768095994 3.144177066159688 3.145225458948624 -1 0 0
114 1 1.569822955104501 4.716256197713429 4.717395479193806 0 0 0
115 1 3.141866590439857 3.1442264366694457 3.1455238729637203 0 0 0
116 1 4.714204000531551 4.716504321506489 4.717833381192783 0 0 0
117 1 6.286044633500672 3.144158860433452 3.145474485320805 0 0 0
118 1 7.8583053732012065 4.71626072442427 4.717653125339129 0 0 0
119 1 9.430313934007177 3.144039920294646 3.145227123463937 0 0 0
120 1 11.002451303839823 4.715987200688752 4.717181522062842 0 0 0
121 1 12.574636323195962 3.1439783285010554 3.1449085271892625 0 0 0
122 1 14.146712028708375 4.715899720185848 4.716753076034687 0 0 0
123 1 15.719048016269618 3.143943060076227 3.1446768158512586 0 0 0
124 1 17.291415320424594 4.715898965930734 4.716633445251034 0 0 0
125 1 18.863283743242622 3.1440800037921814 3.1448626394352788 0 0 0
126 1 20.435312515640774 4.716178617689901 4.717062586184183 0 0 0
127 1 22.007349002240286 6.2883578712662525 3.1452060569362814 -1 0 0
128 1 1.5699557237687187 7.8605259458313625 4.71752120584635 0 0 0
129 1 3.1418369618393527 6.288357814927168 3.1456559590909676 0 0 0
130 1 4.714134710631685 7.860508973307641 4.717936011016599 0 0 0
131 1 6.285992632236929 6.288240105249229 3.1459363293634985 0 0 0
132 1 7.858026597843591 7.859968238992616 4.718037701640967 0 0 0
133 1 9.43030661200415 6.2880228076727205 3.1455412124448174 0 0 0
134 1 11.002135538221154 7.860350152114957 4.7173676424265585 0 0 0
135 1 12.574478004093248 6.287945467333521 3.144813384923699 0 0 0
136 1 14.14912648965029 7.857992728978308 4.713424136742957 0 0 0
137 1 15.719809679506694 6.287406865593744 3.1436718986131496 0 0 0
138 1 17.292030648411423 7.85988994230568 4.715994820671041 0 0 0
139 1 18.863504628958054 6.288148136838217 3.144577783139263 0 0 0
140 1 20.435511335293093 7.860407001648594 4.7169631299172 0 0 0
141 1 22.00740775534736 9.432635965782811 3.1452484527009097 -1 0 0
142 1 1.5700161164188844 11.00477033996332 4.717621728157569 0 0 0
143 1 3.141994578203773 9.43268650729893 3.1459001940181732 0 0 0
144 1 4.7144914936877855 11.004770339956059 4.718305406723139 0 0 0
145 1 6.2862631606544985 9.432742837800195 3.1463689273348487 0 0 0
146 1 7.860020664947359 11.00477034003226 4.718947088352543 0 0 0
147 1 9.42936122200404 9.4311551483171 3.144008633118888 0 0 0
148 1 11.00268009195657 11.004770339963372 4.702217311422299 0 0 0
149 1 12.576140352878147 9.43104398197506 3.14079302226811 0 0 0
150 1 14.148408841138815 11.00477033980996 4.71293740466515 0 0 0
151 1 15.71990127732409 9.432263054870901 3.1430920429960123 0 0 0
152 1 17.292017671623235 11.004770339749054 4.715908492871324 0 0 0
153 1 18.863520075519176 9.432555088044804 3.144460283125813 0 0 0
154 1 20.435562635308322 11.004770339754964 4.716974466216784 0 0 0
155 1 22.00740775520149 12.576904713842135 3.1452484527127864 -1 0 0
156 1 1.5699557236254702 14.14901473390716 4.717521205904035 0 0 0
157 1 3.1419945780963294 12.576854172684488 3.1459001940526883 0 0 0
158 1 4.714134710537394 14.149031706725232 4.717936011001266 0 0 0
159 1 6.286263160584911 12.576797842353992 3.146368927305952 0 0 0
160 1 7.858026597688708 14.149572441083397 4.71803770161682 0 0 0
161 1 9.429361221875622 12.57838553174269 3.144008633131593 0 0 0
162 1 11.002135538034214 14.14919052789561 4.717367642282784 0 0 0
163 1 12.576140352746448 12.578496697896004 3.1407930221987654 0 0 0
164 1 14.149126489387138 14.15154795074368 4.713424136657623 0 0 0
165 1 15.719901277138012 12.57727762474176 3.1430920430014995 0 0 0
166 1 17.29203064814453 14.149650737210305 4.715994820699336 0 0 0
167 1 18.863520075390923 12.576985591434411 3.144460283099902 0 0 0
168 1 20.435511335041024 14.149133677890168 4.716963130013437 0 0 0
169 1 22.007349001915216 15.721182808262716 3.145206056985859 -1 0 0
170 1 1.5698229549108402 17.293284481865427 4.717395479235953 0 0 0
171 1 3.1418369616404496 15.721182864846265 3.145655959122152 0 0 0
172 1 4.714204000335754 17.293036358483278 4.71783338120959 0 0 0
173 1 6.2859926320336035 15.721300574787843 3.145936329317633 0 0 0
174 1 7.858305372989667 17.29327995572292 4.717653125278354 0 0 0
175 1 9.430306611768586 15.721517872436308 3.1455412123323097 0 0 0
176 1 11.002451303545582 17.29355347930977 4.717181522029536 0 0 0
177 1 12.574478003725096 15.721595212491227 3.1448133848185127 0 0 0
178 1 14.146712028388182 17.293640959578077 4.71675307594841 0 0 0
179 1 15.719809679142411 15.722133813868453 3.1436718985785523 0 0 0
180 1 17.29141532013607 17.293641713506876 4.7166334452801655 0 0 0
181 1 18.86350462860021 15.721392542511623 3.144577783166229 0 0 0
182 1 20.435312515363545 17.293362061760583 4.717062586183664 0 0 0
183 1 22.007277680767164 18.865363613116337 3.145225458985496 -1 0 0
184 1 1.569683251811558 20.437471864835143 4.717279840158591 0 0 0
185 1 3.1418665902838216 18.865314243039798 3.1455238729781017 0 0 0
186 1 4.7138199794251054 20.437433822272737 4.717305887260951 0 0 0
187 1 6.286044633319827 18.8653818196312 3.145474485342857 0 0 0
188 1 7.858068835365332 20.4374973282138 4.717170540184519 0 0 0
189 1 9.430313933778253 18.865500759899113 3.1452271234623903 0 0 0
190 1 11.002491774314937 20.43757068103052 4.716989213774086 0 0 0
191 1 12.57463632293793 18.865562351396218 3.1449085271605175 0 0 0
192 1 14.146928485642926 20.437571200768527 4.716781406616324 0 0 0
193 1 15.719048015984404 18.86559761935598 3.144676815848938 0 0 0
194 1 17.29147725760471 20.437633456282022 4.716678408123865 0 0 0
195 1 18.86328374295162 18.86546067539892 3.1448626395003147 0 0 0
196 1 20.435306856854734 20.437479669614838 4.717123117670206 0 0 0
197 1 22.007263658981717 22.00954383977562 6.289308907023347 -1 -1 0
198 1 1.5696427958617385 1.5720501482252076 7.861464139755702 0 0 0
199 1 3.1415985775083892 22.009543839923545 6.289257143226072 0 -1 0
200 1 4.71345970557583 1.5718751287187636 7.861260051798154 0 0 0
201 1 6.285701370230622 22.00954383998773 6.289089750158603 0 -1 0
202 1 7.857620118406487 1.571649417792492 7.860971781759483 0 0 0
203 1 9.430135157103123 22.00954384007249 6.288923027058628 0 -1 0
204 1 11.002427650647215 1.5713914557610644 7.860827848243542 0 0 0
205 1 12.574837667626653 22.009543839931062 6.288785110738813 0 -1 0
206 1 14.14778830850124 1.5711881258917881 7.860489263228636 0 0 0
207 1 15.71963582141551 22.00954383977234 6.2885587958595535 0 -1 0
208 1 17.29154417271946 1.5719687929829245 7.861148481771205 0 0 0
209 1 18.863420120596608 22.009543839728487 6.289103918815183 0 -1 0
210 1 20.435343654410865 1.5720554460360514 7.86135728784455 0 0 0
211 1 22.007253977360776 3.144136015189992 6.289327696626209 -1 0 0
212 1 1.5696651357856917 4.7161452430677695 7.861553294131442 0 0 0
213 1 3.1416185915686285 3.1440333060125303 6.289325286429215 0 0 0
214 1 4.713411163760288 4.715680494117973 7.8613133099498285 0 0 0
215 1 6.285809106642548 3.144071998835951 6.289265874189835 0 0 0
216 1 7.857595176046563 4.71549647734395 7.861169411696335 0 0 0
217 1 9.430168666646408 3.143832953268788 6.289107391003586 0 0 0
218 1 11.001888049373498 4.714975876198157 7.861323194280856 0 0 0
219 1 12.574648144731992 3.143789370624346 6.2889481083448056 0 0 0
220 1 14.148923101796603 4.713352867217607 7.859314876893055 0 0 0
221 1 15.719830070880764 3.1433320812385963 6.288308656314902 0 0 0
222 1 17.29138960754801 4.716122895483383 7.861256660512256 0 0 0
223 1 18.863390145320174 3.144096762064312 6.289114331984943 0 0 0
224 1 20.435255496237627 4.716182206034275 7.86138921827082 0 0 0
225 1 22.007265376391615 6.288155544126511 6.289190785182808 -1 0 0
226 1 1.5693807860334956 7.859931946279169 7.861196120384513 0 0 0
227 1 3.1418709235485314 6.288199304244093 6.289521181443808 0 0 0
228 1 4.7136102837584595 7.859557499693063 7.86130066507702 0 0 0
229 1 6.287041324936106 6.2891151106705 6.290635280626426 0 0 0
230 1 7.861194173997499 7.86258994246728 7.865163171692151 0 0 0
231 1 9.430925222014832 6.288381491210175 6.290475196093578 0 0 0
232 1 10.99863292419055 7.865338234965355 7.8693615080314805 0 0 0
233 1 12.573298786951899 6.2884519414557465 6.2901799471623425 0 0 0
234 1 14.14867057304133 7.858283539978577 7.856705705515227 0 0 0
235 1 15.719762506332655 6.287322884151076 6.288044925381118 0 0 0
236 1 17.291499739346055 7.860147143671942 7.8607667274932735 0 0 0
237 1 18.86340938976646 6.288152071382545 6.288938877196235 0 0 0
238 1 20.435332350501554 7.860098348611744 7.861067980689404 0 0 0
239 1 22.007461132788833 9.43259459562179 6.289337383613937 -1 0 0
240 1 1.5696838533472834 11.00477033992615 7.861671705711502 0 0 0
241 1 3.1422479794237024 9.432749221103254 6.289906160815379 0 0 0
242 1 4.7146769338326076 11.004770340123974 7.86321274462918 0 0 0
243 1 6.286847689713213 9.43291250506293 6.290402427447216 0 0 0
244 1 7.861968147793879 11.00477034006604 7.865152010667274 0 0 0
245 1 9.42890562978307 9.42909020226905 6.290981321423766 0 0 0
246 1 10.997741110253735 11.004770340105143 7.793313712653998 0 0 0
247 1 12.580856949223866 9.426968234805107 6.278997556740988 0 0 0
248 1 14.152625980238179 11.00477033989615 7.855334588316971 0 0 0
249 1 15.721229908024455 9.431830652927752 6.286515287912876 0 0 0
250 1 17.292123348164612 11.004770339841311 7.861247738201184 0 0 0
251 1 18.863743611075787 9.432530345046333 6.2887412235618605 0 0 0
252 1 20.435461170417458 11.004770339845532 7.861300966254724 0 0 0
253 1 22.007461132717097 12.576946084165812 6.289337383615498 -1 0 0
254 1 1.5693807858653968 14.149608733594023 7.861196120483016 0 0 0
255 1 3.1422479793480536 12.576791458761862 6.289906160861053 0 0 0
256 1 4.713610283773732 14.149983180234118 7.861300665115632 0 0 0
257 1 6.286847689629218 12.576628174979112 6.290402427551514 0 0 0
258 1 7.861194173955155 14.146950737609794 7.865163171551962 0 0 0
259 1 9.428905629655382 12.580450477881676 6.290981321477233 0 0 0
260 1 10.99863292406997 14.144202445356834 7.869361507444973 0 0 0
261 1 12.580856949130286 12.582572445051596 6.2789975566338345 0 0 0
262 1 14.148670572785086 14.15125713982344 7.8567057054471645 0 0 0
263 1 15.72122990793462 12.577710026681578 6.286515287895996 0 0 0
264 1 17.2914997391506 14.149393535994118 7.8607667275207795 0 0 0
265 1 18.863743610950888 12.57701033464631 6.28874122357293 0 0 0
266 1 20.43533235031905 14.149442331159838 7.8610679807016846 0 0 0
267 1 22.007265376208533 15.72138513554296 6.289190785255564 -1 0 0
268 1 1.56966513562001 17.293395436806414 7.861553294172929 0 0 0
269 1 3.141870923361836 15.721341375674685 6.289521181451639 0 0 0
270 1 4.713411163619299 17.293860185881915 7.861313309970891 0 0 0
271 1 6.287041324758907 15.720425569368315 6.290635280600442 0 0 0
272 1 7.85759517582223 17.29404420280596 7.861169411686151 0 0 0
273 1 9.430925221745094 15.721159188858909 6.29047519588674 0 0 0
274 1 11.001888049188112 17.294564803883304 7.861323194233141 0 0 0
275 1 12.573298786844195 15.721088738469957 6.290179946928807 0 0 0
276 1 14.148923101498214 17.296187812488395 7.859314876960418 0 0 0
277 1 15.719762506085223 15.722217795471451 6.288044925366102 0 0 0
278 1 17.291389607261415 17.293417784203292 7.861256660558447 0 0 0
279 1 18.863409389492745 15.721388608167727 6.288938877248774 0 0 0
280 1 20.43525549595364 17.293358473638815 7.861389218338521 0 0 0
281 1 22.007253977153727 18.86540466442583 6.28932769670896 -1 0 0
282 1 1.5696427958263797 20.437490531620657 7.861464139783649 0 0 0
283 1 3.141618591425074 18.86550737386198 6.289325286430748 0 0 0
284 1 4.713459705501061 20.437665551415943 7.861260051825861 0 0 0
285 1 6.285809106507656 18.865468681307238 6.289265874071072 0 0 0
286 1 7.857620118315217 20.437891262389893 7.8609717817590905 0 0 0
287 1 9.430168666515558 18.865707726816474 6.289107390865063 0 0 0
288 1 11.002427650556006 20.438149224309207 7.860827848193973 0 0 0
289 1 12.57464814452129 18.865751309318973 6.288948108229889 0 0 0
290 1 14.147788308417066 20.438352553931665 7.860489263215584 0 0 0
291 1 15.719830070675913 18.86620859833676 6.288308656339108 0 0 0
292 1 17.291544172606116 20.43757188666433 7.8611484818342685 0 0 0
293 1 18.863390145085603 18.865443917387942 6.289114332067251 0 0 0
294 1 20.435343654333476 20.437485233633495 7.861357287886182 0 0 0
295 1 22.007250595476492 22.009543840013226 9.43355452976869 -1 -1 0
296 1 1.5695747349214384 1.5720156848683824 11.005796069591261 0 0 0
297 1 3.1415128889724544 22.00954384000836 9.433598931619382 0 -1 0
298 1 4.713383002986341 1.571852653709117 11.005873753674202 0 0 0
299 1 6.285378119361582 22.009543840035537 9.433370822865307 0 -1 0
300 1 7.857399318320985 1.5710302394984283 11.005743818634851 0 0 0
301 1 9.429866009995822 22.009543840058015 9.4331239026356 0 -1 0
302 1 11.00253160842536 1.56976800002307 11.005842365952843 0 0 0
303 1 12.57529800926747 22.009543839917026 9.433009855357906 0 -1 0
304 1 14.147678646417962 1.5711234228656665 11.005899328792868 0 0 0
305 1 15.719651618445448 22.00954383985914 9.433323361733652 0 -1 0
306 1 17.29158543482341 1.5718917571776538 11.005667225509667 0 0 0
307 1 18.863467491274463 22.009543839911995 9.433442812667542 0 -1 0
308 1 20.435341472479628 1.5720268812461031 11.005690002224583 0 0 0
309 1 22.007236808249342 3.144102453334028 9.433597488162468 -1 0 0
310 1 1.5695589638691756 4.716100430109633 11.00592808755973 0 0 0
311 1 3.14154471752864 3.1440257264622424 9.433714345168243 0 0 0
312 1 4.7134406678005405 4.7158715441199455 11.006191714147125 0 0 0
313 1 6.285201960108666 3.1431543330454246 9.433313582800409 0 0 0
314 1 7.856994482830761 4.712869771531131 11.005196719992218 0 0 0
315 1 9.4296153485498 3.1418620775213864 9.432903306465642 0 0 0
316 1 11.002714290088836 4.705434546522694 11.006131851102037 0 0 0
317 1 12.575896982759303 3.1401469496623453 9.432570210171269 0 0 0
318 1 14.148184035676573 4.713509025078664 11.006728035883697 0 0 0
319 1 15.719652734683402 3.143588804975697 9.433382567611298 0 0 0
320 1 17.291442530782383 4.71598873392492 11.005557709092372 0 0 0
321 1 18.863409592083276 3.1440432621729384 9.433460256817527 0 0 0
322 1 20.435255476032392 4.716119172598426 11.005713108371612 0 0 0
323 1 22.00717047295477 6.288193920071419 9.433660423033649 -1 0 0
324 1 1.5693811655685979 7.860225837017765 11.006139738860101 0 0 0
325 1 3.141647840533223 6.2881428664065115 9.434020299853328 0 0 0
326 1 4.7139014599719555 7.861045111156074 11.00673657698458 0 0 0
327 1 6.28481364301748 6.286339930675569 9.433210822952535 0 0 0
328 1 7.857366525431023 7.855630556278534 11.002233579994973 0 0 0
329 1 9.428670357640925 6.285105540687391 9.432575340099296 0 0 0
330 1 11.005244587156104 7.814149162176215 11.007913428924557 0 0 0
331 1 12.578828388904885 6.274761860581478 9.431140415967535 0 0 0
332 1 14.147312529940521 7.859674770917066 11.0109442545581 0 0 0
333 1 15.71853882739438 6.28850707707503 9.433688154582411 0 0 0
334 1 17.291095742265068 7.860858823672424 11.0054447851144 0 0 0
335 1 18.86309724175732 6.288210722120537 9.433500712310668 0 0 0
336 1 20.43521863684522 7.860227179597731 11.005776143634952 0 0 0
337 1 22.00692568781438 9.4321680123002 9.43337698422916 -1 0 0
338 1 1.5671129325607236 11.004770339952339 11.006213468373419 0 0 0
339 1 3.1399182098676257 9.431213876985609 9.43285276657635 0 0 0
340 1 4.698815449958608 11.004770340056476 11.006739371990257 0 0 0
341 1 6.2855269433422 9.428107175646797 9.430588851094106 0 0 0
342 1 7.779228929213544 11.004770340124546 11.003430670864313 0 0 0
343 1 9.435296316120873 9.43774034858965 9.446166463952496 0 0 0
344 1 20.435151889649127 20.437478749554334 20.4385995840351 0 0 0
345 1 12.604013356249588 9.387293600530406 9.423834961300921 0 0 0
346 1 14.199052760461932 11.004770339867656 11.015057191972803 0 0 0
347 1 15.717959713617118 9.432508209901767 9.431469915643182 0 0 0
348 1 17.299615894464303 11.004770339866516 11.006213073513639 0 0 0
349 1 18.863978590821944 9.431869749958672 9.432840005291979 0 0 0
350 1 20.43622754883326 11.004770339954314 11.005798219066111 0 0 0
351 1 22.006925687704925 12.577372667659509 9.433376984263031 -1 0 0
352 1 1.56938116549523 14.149314843007618 11.006139738787896 0 0 0
353 1 3.1399182099367917 12.578326803042 9.432852766550585 0 0 0
354 1 4.713901459830406 14.148495568923881 11.006736576876937 0 0 0
355 1 6.285526943626909 12.581433504260469 9.430588851217824 0 0 0
356 1 7.857366524816717 14.153910124200795 11.002233579578665 0 0 0
357 1 9.435296315972549 12.57180033134212 9.446166463829723 0 0 0
358 1 11.005244586800524 14.195391517294851 11.007913428495964 0 0 0
359 1 12.604013355964366 12.62224707925582 9.423834961088348 0 0 0
360 1 14.147312529635826 14.149865908690792 11.01094425447274 0 0 0
361 1 15.71795971338671 12.577032469763763 9.431469915622237 0 0 0
362 1 17.291095742050572 14.148681856130846 11.005444785046173 0 0 0
363 1 18.863978590678897 12.577670929838732 9.432840005316274 0 0 0
364 1 20.435218636687637 14.14931350035256 11.005776143647966 0 0 0
365 1 22.007170472796794 15.72134675982266 9.4336604230943 -1 0 0
366 1 1.569558963699925 17.293440249949214 11.005928087547954 0 0 0
367 1 3.1416478403301493 15.721397813628496 9.434020299858625 0 0 0
368 1 4.7134406676285 17.29366913611079 11.006191714038785 0 0 0
369 1 6.284813642843471 15.72320074946989 9.433210822818225 0 0 0
370 1 7.856994482581649 17.296670908633267 11.005196719867927 0 0 0
371 1 9.428670357491123 15.724435139247632 9.432575339916461 0 0 0
372 1 11.002714289820595 17.304106133209412 11.006131850945142 0 0 0
373 1 12.57882838856837 15.734778819175318 9.431140415890612 0 0 0
374 1 14.148184035372239 17.296031654714874 11.006728035820098 0 0 0
375 1 15.718538827166713 15.721033602679299 9.433688154566235 0 0 0
376 1 17.29144253047391 17.293551945849078 11.005557709113479 0 0 0
377 1 18.86309724152961 15.721329957646438 9.433500712366117 0 0 0
378 1 20.43525547583556 17.293421507356875 11.005713108357146 0 0 0
379 1 22.007236808141702 18.865438226609236 9.433597488247408 -1 0 0
380 1 1.569574734876147 20.43752499514236 11.005796069584717 0 0 0
381 1 3.1415447173221973 18.865514953683896 9.433714345159753 0 0 0
382 1 4.713383002939466 20.437688026573895 11.005873753619168 0 0 0
383 1 6.285201960060532 18.866386347048884 9.433313582765036 0 0 0
384 1 7.857399318272865 20.43851044062779 11.005743818592642 0 0 0
385 1 9.429615348417483 18.86767860253351 9.432903306433541 0 0 0
386 1 11.002531608345773 20.439772679874576 11.005842365939305 0 0 0
387 1 12.575896982528782 18.86939373006916 9.43257021020857 0 0 0
388 1 14.14767864630235 20.4384172570304 11.005899328727622 0 0 0
389 1 15.71965273451927 18.865951874773714 9.433382567618798 0 0 0
390 1 17.291585434735175 20.437648922631315 11.005667225488413 0 0 0
391 1 18.86340959188043 18.86549741763516 9.433460256814445 0 0 0
392 1 20.43534147238168 20.437513798709983 11.005690002259467 0 0 0
393 1 22.00720853363679 22.00954384003304 12.577928321273157 -1 -1 0
394 1 1.5694981922088467 1.5719801868545416 14.150231798787624 0 0 0
395 1 3.1414213886804947 22.009543840113196 12.578073193120483 0 -1 0
396 1 4.713261444674874 1.5718186799488512 14.150542471913823 0 0 0
397 1 6.285288798121881 22.009543840078933 12.578289080028904 0 -1 0
398 1 7.857128795996823 1.5710533132636935 14.15125499164285 0 0 0
399 1 9.429746678798754 22.009543839990123 12.578697748703478 0 -1 0
400 1 11.002624990074711 1.5712122421275687 14.15100930647332 0 0 0
401 1 12.575225073062363 22.009543839953427 12.578532018018418 0 -1 0
402 1 14.14753117421277 1.5713752989776475 14.150860974857894 0 0 0
403 1 15.719697893690018 22.009543839933166 12.578212908298642 0 -1 0
404 1 17.29161135298296 1.5717935581259215 14.15038789739929 0 0 0
405 1 18.863466491636483 22.00954383992977 12.577906616707674 0 -1 0
406 1 20.43530749585358 1.5719940092345914 14.150127230251554 0 0 0
407 1 22.00717193576626 3.14404246284077 12.577962487355734 -1 0 0
408 1 1.5694466532535143 4.715979925098802 14.150371670215474 0 0 0
409 1 3.141416619316062 3.1439192751103837 12.578149567288493 0 0 0
410 1 4.713122322871446 4.715608894451477 14.15076443375986 0 0 0
411 1 6.2852051599638985 3.1432473193476147 12.578382405045295 0 0 0
412 1 7.855924921029629 4.713043245000282 14.15257843573503 0 0 0
413 1 9.429181046601267 3.1398468602349108 12.579305567748436 0 0 0
414 1 11.002922416540288 4.714376331690891 14.150853822396426 0 0 0
415 1 12.575603018354625 3.141441265080503 12.578983339022603 0 0 0
416 1 14.148075611953068 4.714112379703675 14.151472738634011 0 0 0
417 1 15.719886391489482 3.1431129619010973 12.57835277314898 0 0 0
418 1 17.291671517497946 4.715477480765695 14.150501629672318 0 0 0
419 1 18.863425050671033 3.1439779969403006 12.577885601881967 0 0 0
420 1 20.435234047519902 4.716004982634233 14.150202806238232 0 0 0
421 1 22.00710946047629 6.2881095734031565 12.578117184725897 -1 0 0
422 1 1.5689420073237677 7.859791484669156 14.151101844500861 0 0 0
423 1 3.1415315554434846 6.287994624886075 12.578344523016563 0 0 0
424 1 4.712512956419287 7.859333494096813 14.15196153126221 0 0 0
425 1 6.285731669656898 6.287303680226665 12.578815186224215 0 0 0
426 1 7.856336723171638 7.858172359026024 14.154854969600382 0 0 0
427 1 9.42649484373694 6.274170202165997 12.580980550758579 0 0 0
428 1 11.00212444690095 7.864813101359684 14.141686934055501 0 0 0
429 1 12.5779210488692 6.28318687223122 12.581112063759587 0 0 0
430 1 14.148034119778915 7.857952651487194 14.151193540002694 0 0 0
431 1 15.720180928448302 6.286649842530455 12.578641916266509 0 0 0
432 1 17.29242728339241 7.858914689143341 14.151484609030867 0 0 0
433 1 18.863333504493227 6.288070878602423 12.577858604552203 0 0 0
434 1 20.43536518871375 7.859884002039816 14.15077989145446 0 0 0
435 1 22.00683119826136 9.432155479415199 12.578632155007742 -1 0 0
436 1 1.5688714389959977 11.004770339994328 14.150869565461495 0 0 0
437 1 3.1396935182340187 9.43121698843606 12.580008494709782 0 0 0
438 1 4.71241495425087 11.004770340109138 14.151156933887945 0 0 0
439 1 6.286153037283442 9.429898529152474 12.58385814316886 0 0 0
440 1 7.853724484120306 11.004770340145411 14.158855714402758 0 0 0