LAMMPS data file via write_data, version 2 Aug 2023, timestep = 40, units = metal

690 atoms
3 atom types

0 22.009546999999998 xlo xhi
0 22.009546999999998 ylo yhi
0 22.009546999999998 zlo zhi

Masses

1 183.84
2 1.008
3 4.0026

Atoms # atomic

1 1 22.00650402788127 22.009459619702994 0.0012464549962998368 -1 -1 0
2 1 1.5693360736650603 1.5719736621103018 1.5734953090136976 0 0 0
3 1 3.141172482231841 22.009236603899588 0.0016548725265630605 0 -1 0
4 1 4.713438475780782 1.5714711582156609 1.5737333567010607 0 0 0
5 1 6.285451803223078 22.008935837852434 0.0016560410573001187 0 -1 0
6 1 7.857431222090811 1.5712256064649266 1.5734541570614402 0 0 0
7 1 9.429280561489099 22.008671475392642 0.0013320265761551959 0 -1 0
8 1 11.001577944763696 1.5708086881858778 1.5728295979007312 0 0 0
9 1 12.573712182479758 22.008795444696332 0.0008980639778846506 0 -1 0
10 1 14.14606115979024 1.5709275239886007 1.5724362786821504 0 0 0
11 1 15.718122224217261 22.008781427291897 0.00065804731958622 0 -1 0
12 1 17.29036525453169 1.571289793737692 1.5723473166919548 0 0 0
13 1 18.862233454079725 22.009229349104167 0.0007674447334292718 0 -1 0
14 1 20.434566529412194 1.5718009282715533 1.5729290666015752 0 0 0
15 1 22.00632152348528 3.143797247677236 0.0010976583634904006 -1 0 0
16 1 1.5691385055766471 4.7157051928274605 1.573459289603025 0 0 0
17 1 3.141045255808985 3.143843825254039 0.0017864243611685098 0 0 0
18 1 4.713305405894322 4.715603415449825 1.5740865673257107 0 0 0
19 1 6.285126542318141 3.143159379974331 0.0017024673177562103 0 0 0
20 1 7.8573311386726505 4.715165148325512 1.5737315601528545 0 0 0
21 1 9.429360273481215 3.143114950356732 0.0011775861133095312 0 0 0
22 1 11.001584367195697 4.714998400105409 1.57263778803181 0 0 0
23 1 12.57374291583193 3.1430680691633044 0.00041639246061452186 0 0 0
24 1 14.146127875186188 4.714843663800594 1.5717338096970772 0 0 0
25 1 15.718056739173107 3.143280397777167 0.00013186192363096342 0 0 0
26 1 17.290692860339078 4.715005869750769 1.5715848162352501 0 0 0
27 1 18.862239379150175 3.1436435356257912 0.000303735035452349 0 0 0
28 1 20.434647838548685 4.715632122476166 1.5726017056784256 0 0 0
29 1 22.006364523622253 6.287606407649854 0.0009986093688132665 -1 0 0
30 1 1.5692020731694232 7.859652911937521 1.5734943903898677 0 0 0
31 1 3.1405946746549085 6.287559301685931 0.001982789485990599 0 0 0
32 1 4.713297791883759 7.859698165769992 1.5744033623757763 0 0 0
33 1 6.284760977720753 6.2870264006853676 0.0024160716970035015 0 0 0
34 1 7.85719692734347 7.8590553959901115 1.5742197181445983 0 0 0
35 1 9.429249907612778 6.287102866366568 0.00125203509249192 0 0 0
36 1 11.001635612993349 7.858951458284114 1.572069809538666 0 0 0
37 1 12.573671393645428 6.287233843378869 22.00930323513002 0 0 -1
38 1 14.147019154321166 7.858517233266114 1.5698584184234858 0 0 0
39 1 15.718307184525644 6.287197443107724 22.008542139666403 0 0 -1
40 1 17.29087447109064 7.859152359501778 1.5709127502749434 0 0 0
41 1 18.862388836447035 6.2876314971135185 22.00937234405859 0 0 -1
42 1 20.43474931089238 7.859632281431617 1.5723890315892493 0 0 0
43 1 22.006267323385444 9.432011978601011 0.0009928582450671347 -1 0 0
44 1 1.5693362327449862 11.003884068788173 1.5737223079691314 0 0 0
45 1 3.140639251846874 9.431829872252491 0.002278753028859508 0 0 0
46 1 4.713389640704356 11.004117156195306 1.5747131442166153 0 0 0
47 1 6.284831562656892 9.431759053769634 0.0030966553474346633 0 0 0
48 1 7.857631669267948 11.003941882827204 1.574950715720511 0 0 0
49 1 9.428832349277164 9.431333702766608 0.0018850159833816204 0 0 0
50 1 11.001635549379875 11.003918090180873 1.5702704812818602 0 0 0
51 1 12.574028036669207 9.43128304375509 22.00834098733388 0 0 -1
52 1 14.146987043610535 11.00391950148015 1.5693876403054212 0 0 0
53 1 15.718049597602377 9.431825616283106 22.0078792613552 0 0 -1
54 1 17.291045396983115 11.004092826060239 1.5707923552249563 0 0 0
55 1 18.862309279762624 9.431782502635192 22.00923638616229 0 0 -1
56 1 20.43490106343427 11.004011987781055 1.572351228615192 0 0 0
57 1 22.006431772058367 12.57637021779862 0.0012165653815601927 -1 0 0
58 1 1.5692766137405634 14.148253505808226 1.5736447437464312 0 0 0
59 1 3.1404696752031165 12.576186573482685 0.0023368027919801787 0 0 0
60 1 4.713350781413026 14.148213346068522 1.5746073072960292 0 0 0
61 1 6.284797760219748 12.576489345504847 0.003232136973250403 0 0 0
62 1 7.857059087957209 14.148571930878006 1.5746213005116947 0 0 0
63 1 9.428882306617712 12.576714457291034 0.0022024891559378635 0 0 0
64 1 11.001489189436255 14.148524510558552 1.5728797788666227 0 0 0
65 1 12.573974303769814 12.576699921308384 22.008907078428766 0 0 -1
66 1 14.14715174087037 14.149208104944934 1.5706979260130776 0 0 0
67 1 15.718347463606193 12.576451501624938 22.008351414886686 0 0 -1
68 1 17.291216206957987 14.14887157651303 1.5713304733871403 0 0 0
69 1 18.862548269494216 12.576262529246288 22.009526005853402 0 0 -1
70 1 20.434907969810165 14.148362618925523 1.5725958141195195 0 0 0
71 1 22.00654385560748 15.720695850701043 0.0013222916006415696 -1 0 0
72 1 1.569311659216458 17.292792348164532 1.5736530522524474 0 0 0
73 1 3.1408400718330336 15.720584045484628 0.002206731204039291 0 0 0
74 1 4.713397340227076 17.29265226466104 1.5743359718039973 0 0 0
75 1 6.284677983847259 15.720982773516342 0.0027275178309549906 0 0 0
76 1 7.857389326263665 17.292542023790652 1.5740176514332351 0 0 0
77 1 9.42912496012484 15.720936425749388 0.001858571768494953 0 0 0
78 1 11.001534946104483 17.292580089696404 1.5733920240675645 0 0 0
79 1 12.57371757413401 15.720981132996407 0.000774273019451851 0 0 0
80 1 14.146111184330126 17.29286086031255 1.572492783352856 0 0 0
81 1 15.718750976239642 15.721131399735125 2.764147571587346e-05 0 0 0
82 1 17.290821311111785 17.29327701749071 1.5720780336504792 0 0 0
83 1 18.862907119897642 15.720763213961732 0.0004276077899056364 0 0 0
84 1 20.434860111937667 17.292878697852736 1.5728337855942263 0 0 0
85 1 22.00654333658924 18.865134930023462 0.0013146141585926425 -1 0 0
86 1 1.5693957316725362 20.437245886879193 1.573616071917728 0 0 0
87 1 3.1410766915949115 18.865023124567035 0.0018789302897711765 0 0 0
88 1 4.713511201816617 20.436986787311895 1.573791853810397 0 0 0
89 1 6.285192998191635 18.86475524492053 0.0019344527891129897 0 0 0
90 1 7.857395275634801 20.436676647734732 1.5735200976158472 0 0 0
91 1 9.42941935801634 18.864972533906457 0.001645972982115553 0 0 0
92 1 11.001617855370151 20.43653574926648 1.5732104348567482 0 0 0
93 1 12.573840179197713 18.86504389525525 0.0011245672469028516 0 0 0
94 1 14.14611746756683 20.43675171647537 1.5726397685848834 0 0 0
95 1 15.718272041442676 18.86496336680544 0.0007369192050148427 0 0 0
96 1 17.29036338293724 20.4370335972303 1.5725863402721447 0 0 0
97 1 18.862594162218937 18.865217733645363 0.0008352049095575837 0 0 0
98 1 20.43466605189992 20.4372618202882 1.5730140443372314 0 0 0
99 1 22.006864035360977 22.009190819034 3.1451514587843246 -1 -1 0
100 1 1.56943781460868 1.571409706956298 4.7173458531695625 0 0 0
101 1 3.1415118027079596 22.009163104173684 3.145613889428105 0 -1 0
102 1 4.713602307272256 1.5714687344677483 4.717635242001323 0 0 0
103 1 6.285582866412953 22.008673529174892 3.1456756272615922 0 -1 0
104 1 7.857454613105537 1.5708017959435177 4.717303821631367 0 0 0
105 1 9.429606637110709 22.008255315371684 3.1452320685851585 0 -1 0
106 1 11.001738426539543 1.5705312859547262 4.7168913767540674 0 0 0
107 1 12.573963989086023 22.008211524700332 3.144729073429502 0 -1 0
108 1 14.146491569771344 1.5702978159316112 4.716242292876668 0 0 0
109 1 15.718410361654803 22.00847824145009 3.14445123817456 0 -1 0
110 1 17.291328107941627 1.570456669601012 4.715897410798957 0 0 0
111 1 18.86287675088122 22.008889298290814 3.1444988558516265 0 -1 0
112 1 20.43511625620197 1.571235095114827 4.716869068762986 0 0 0
113 1 22.00693818999174 3.1437669619569815 3.145189363189028 -1 0 0
114 1 1.5694644490780667 4.715543492425166 4.717421665572267 0 0 0
115 1 3.141612005860871 3.1438462202577786 3.145783776184025 0 0 0
116 1 4.714122323848133 4.7159370568818275 4.718115282227904 0 0 0
117 1 6.285698406983824 3.143457978241561 3.145891487224959 0 0 0
118 1 7.858103262262796 4.7155875174160595 4.7182034723818855 0 0 0
119 1 9.429521532611417 3.1428892522272416 3.1450948432493298 0 0 0
120 1 11.001852943831667 4.714579567506664 4.716580393247319 0 0 0
121 1 12.573853954229126 3.1426397067363325 3.144354709471811 0 0 0
122 1 14.14661378663929 4.714116281899197 4.715457923178989 0 0 0
123 1 15.71862462271535 3.1425716942162674 3.143820178553019 0 0 0
124 1 17.291489415666955 4.714303471185588 4.7155711289142825 0 0 0
125 1 18.86293957303289 3.1431954734716228 3.1443609806456863 0 0 0
126 1 20.435080183248022 4.715253047259504 4.716647292002488 0 0 0
127 1 22.006969741430684 6.287606859233163 3.1448330638132806 -1 0 0
128 1 1.5695795116140634 7.859593207961633 4.717422280519077 0 0 0
129 1 3.14157843875283 6.287626795821622 3.145874316770221 0 0 0
130 1 4.714112538647512 7.859854241606336 4.718321046097026 0 0 0
131 1 6.285881267113972 6.287687729898401 3.146498055741955 0 0 0
132 1 7.858656142509154 7.8598108873710375 4.719330813553286 0 0 0
133 1 9.42967860329602 6.287063221591779 3.1454733088909275 0 0 0
134 1 11.001671932888229 7.8589158897236056 4.7162814491548 0 0 0
135 1 12.574048324448704 6.2866644506048015 3.1436442993684692 0 0 0
136 1 14.149775680185567 7.8560399759461905 4.710831619890182 0 0 0
137 1 15.719594862492128 6.286028660144105 3.142248060211675 0 0 0
138 1 17.292035378713432 7.858785945891126 4.714907320557506 0 0 0
139 1 18.863056030134306 6.286917837316507 3.143968325269586 0 0 0
140 1 20.435357809257162 7.859339885873371 4.716399615577697 0 0 0
141 1 22.007110988001152 9.431736498564081 3.144934466685841 -1 0 0
142 1 1.5697094417965 11.004062460288289 4.717494448145361 0 0 0
143 1 3.1417548568948614 9.431912528435458 3.146168473706185 0 0 0
144 1 4.714493372509052 11.003944824287318 4.718904533131015 0 0 0
145 1 6.286328646497074 9.432020291540223 3.147236727793269 0 0 0
146 1 7.86067282455237 11.003743987529758 4.7208825462529305 0 0 0
147 1 9.429398772184417 9.430455792742599 3.1448192097568204 0 0 0
148 1 11.002571491732155 11.004020191965955 4.703642310866624 0 0 0
149 1 12.575710707856306 9.430133343432635 3.1387676427975633 0 0 0
150 1 14.149807429535382 11.004497817104415 4.709643930505592 0 0 0
151 1 15.719961570514478 9.431100240765412 3.1416017176774096 0 0 0
152 1 17.292305205625745 11.003794337658556 4.714627565418656 0 0 0
153 1 18.863355519924013 9.431586218445714 3.1435754510210643 0 0 0
154 1 20.435552031466838 11.004089392111844 4.7163489608142575 0 0 0
155 1 22.007211190235996 12.576103698055277 3.144816024845365 -1 0 0
156 1 1.5698417119944963 14.148318136277938 4.717384407123458 0 0 0
157 1 3.14173109263737 12.576161295633028 3.1461595417963055 0 0 0
158 1 4.714246409280789 14.147669887824748 4.718465879741199 0 0 0
159 1 6.286218305991765 12.57562931963515 3.1473329468348425 0 0 0
160 1 7.858741923475495 14.1473450501704 4.7200214122604205 0 0 0
161 1 9.429148112666338 12.577039690014177 3.1454172127761106 0 0 0
162 1 11.001737624795743 14.147696203157038 4.717837106420854 0 0 0
163 1 12.575785121192794 12.577363552151926 3.1400721936069043 0 0 0
164 1 14.149211431491523 14.15084538837486 4.712328847446708 0 0 0
165 1 15.7201783119826 12.576695540390736 3.141601478624148 0 0 0
166 1 17.292612387495865 14.14930533782251 4.714627687911784 0 0 0
167 1 18.86357568169386 12.576431773568943 3.1436427568394136 0 0 0
168 1 20.435661271608605 14.148630881828971 4.716322979010026 0 0 0
169 1 22.00725424491932 15.720575614261591 3.1448900909563537 -1 0 0
170 1 1.5696786096270217 17.292809070881805 4.7174479721827725 0 0 0
171 1 3.141617671927798 15.72031429606334 3.14594311021876 0 0 0
172 1 4.713995398059627 17.291831685915096 4.718123371297066 0 0 0
173 1 6.285855034170768 15.719953923058986 3.146758972958159 0 0 0
174 1 7.858089414331985 17.29145668124216 4.718308090346313 0 0 0
175 1 9.429556015766218 15.72006219540589 3.1460921531229142 0 0 0
176 1 11.001868473613786 17.291809277701628 4.717512113231009 0 0 0
177 1 12.573898386120089 15.720385101374935 3.144630582025035 0 0 0
178 1 14.146553479909212 17.292638093597372 4.716296760436311 0 0 0
179 1 15.719683996875672 15.721660390215243 3.1429137199342647 0 0 0
180 1 17.291491610821577 17.293082533934342 4.715782691212576 0 0 0
181 1 18.863454351777758 15.72108926500214 3.1439061940863366 0 0 0
182 1 20.435351278640155 17.29301910834074 4.716566481440458 0 0 0
183 1 22.00697983387067 18.8649807405584 3.1450979824721728 -1 0 0
184 1 1.5695863304827424 20.437031185210582 4.717249574719108 0 0 0
185 1 3.1416196850180342 18.864579252415513 3.145697174536961 0 0 0
186 1 4.713583068284285 20.436373666533953 4.717590036882085 0 0 0
187 1 6.285731889912762 18.86444033127487 3.1459677914159725 0 0 0
188 1 7.857552471068307 20.435997848369883 4.717535147412256 0 0 0
189 1 9.429481389147332 18.864084861524482 3.145525623569209 0 0 0
190 1 11.001766121948725 20.43591529968596 4.717011534224246 0 0 0
191 1 12.573926289241742 18.864280275760482 3.1449078745217847 0 0 0
192 1 14.146397948181603 20.436179048108375 4.716498811919878 0 0 0
193 1 15.718529486334717 18.864953104661954 3.144224659663667 0 0 0
194 1 17.29123045751869 20.43669284609606 4.7160743631529805 0 0 0
195 1 18.86302147807258 18.86506942348636 3.144383248518 0 0 0
196 1 20.435225552122724 20.436966983840783 4.7169635581464595 0 0 0
197 1 22.007242612952126 22.00882513699836 6.289220299305338 -1 -1 0
198 1 1.569578490902251 1.571159237081355 7.86140850420529 0 0 0
199 1 3.14163134084603 22.008793061362166 6.289388847072249 0 -1 0
200 1 4.713501533238068 1.570863167402319 7.861251728177576 0 0 0
201 1 6.285577067893407 22.008364307860724 6.289356236287598 0 -1 0
202 1 7.857531292693171 1.5706293673302714 7.861163971175372 0 0 0
203 1 9.429504169317685 22.007790352948522 6.289026703416138 0 -1 0
204 1 11.001775475577707 1.5693195464629988 7.860567614035199 0 0 0
205 1 12.574236856206014 22.007605588904692 6.288642763298377 0 -1 0
206 1 14.14763738127563 1.5685623591575824 7.859680141264499 0 0 0
207 1 15.719459637525015 22.00784393873539 6.2879648786508 0 -1 0
208 1 17.29152693790136 1.570204483964448 7.860421177410133 0 0 0
209 1 18.86339773277097 22.008499444714886 6.288639012411374 0 -1 0
210 1 20.435268985568868 1.570985996974216 7.860961437420015 0 0 0
211 1 22.007127390517134 3.1430877384888207 6.28909605523164 -1 0 0
212 1 1.5692939814638749 4.715066351820092 7.861386661254418 0 0 0
213 1 3.14151885714683 3.143232904658388 6.289338672866919 0 0 0
214 1 4.713413319852851 4.714732304970856 7.861293545969212 0 0 0
215 1 6.286032308457063 3.1437309925016437 6.29000216695975 0 0 0
216 1 7.85865381175374 4.71614459998161 7.862015565041496 0 0 0
217 1 9.42955722243191 3.1426310454272812 6.288941742912515 0 0 0
218 1 11.001724872597054 4.713377930987548 7.860425342084928 0 0 0
219 1 12.574192366722013 3.1418546627948256 6.288162455960822 0 0 0
220 1 14.150008145567824 4.70926091137289 7.8569502197510435 0 0 0
221 1 15.720008050007412 3.141149083710263 6.286967193017753 0 0 0
222 1 17.291805414436062 4.714176472846373 7.859931955438717 0 0 0
223 1 18.86332353961486 3.1427504874692405 6.2885280736036835 0 0 0
224 1 20.435042462619037 4.714956430249299 7.860910424081658 0 0 0
225 1 22.006853150884673 6.287146168619494 6.288958284388915 -1 0 0
226 1 1.5686295970127075 7.8588434923902835 7.8610908443697705 0 0 0
227 1 3.1416076005322986 6.287346373946507 6.289607764632926 0 0 0
228 1 4.713202258258517 7.858477270072241 7.861298484071063 0 0 0
229 1 6.2875654600754265 6.288944136034593 6.291314027681586 0 0 0
230 1 7.86332840959998 7.864385946500661 7.867101035196521 0 0 0
231 1 9.431224676305336 6.287907298593976 6.290345799830254 0 0 0
232 1 11.00045436501465 7.865259511728253 7.867822370366893 0 0 0
233 1 12.573185213337243 6.286384517084169 6.287961061668506 0 0 0
234 1 14.151490227152498 7.851939853532139 7.8522676572702546 0 0 0
235 1 15.720964895835293 6.284584879488575 6.2854787596298936 0 0 0
236 1 17.290954074598936 7.859564710171037 7.860298039302797 0 0 0
237 1 18.863198602817295 6.287155706851372 6.288371213207932 0 0 0
238 1 20.434656906334318 7.8591249061848485 7.860638575076166 0 0 0
239 1 22.007049152181057 9.431701316357442 6.289138661864221 -1 0 0
240 1 1.5688665655017917 11.003802569246288 7.861479073200378 0 0 0
241 1 3.1418962935751167 9.431786654289777 6.290023546206406 0 0 0
242 1 4.713690283963797 11.003766083606148 7.863446820462699 0 0 0
243 1 6.287338168870802 9.432246666232663 6.291328802523029 0 0 0
244 1 7.862758232408099 11.002875337159963 7.869137387094227 0 0 0
245 1 9.431482445862462 9.429811613961466 6.294027870264432 0 0 0
246 1 11.003890420760293 11.00298257164404 7.803740797631333 0 0 0
247 1 12.581950672662817 9.42650568604934 6.2709101550173 0 0 0
248 1 14.156535310221205 11.007650628361912 7.848022190772007 0 0 0
249 1 15.721485379436686 9.430456877011087 6.284932576361288 0 0 0
250 1 17.292429129028545 11.003620073983999 7.8600635445313785 0 0 0
251 1 18.86357979414706 9.431469502355965 6.287754301105303 0 0 0
252 1 20.4351105936015 11.003858067046735 7.860708157398931 0 0 0
253 1 22.007339215176273 12.576219662189617 6.288998440910751 -1 0 0
254 1 1.5689117219328386 14.148884614005134 7.860848438299571 0 0 0
255 1 3.1419960866059484 12.575844068744315 6.290028752710736 0 0 0
256 1 4.712924864093795 14.149183289970896 7.861306870355968 0 0 0
257 1 6.287491747495929 12.575045833993485 6.291754122424604 0 0 0
258 1 7.862007584960312 14.144206156680879 7.866836435200998 0 0 0
259 1 9.4316129309086 12.576509694538096 6.295613794309877 0 0 0
260 1 11.000102221209291 14.141268900801517 7.870008253585943 0 0 0
261 1 12.581015918341144 12.580883311740811 6.27663591604039 0 0 0
262 1 14.149356051939899 14.150392705887047 7.855024906875094 0 0 0
263 1 15.72302737709139 12.578341446981531 6.283567591037469 0 0 0
264 1 17.292638372376892 14.14947991541575 7.858998271999008 0 0 0
265 1 18.864015003606596 12.576222521522864 6.28780295478434 0 0 0
266 1 20.4356309279227 14.149032709722922 7.860339807955415 0 0 0
267 1 22.007357495925046 15.720843971284928 6.288662164015822 -1 0 0
268 1 1.5695823397684918 17.29296652209633 7.86131489608771 0 0 0
269 1 3.1416065197937164 15.7205945879759 6.289470066823958 0 0 0
270 1 4.7133118988776 17.29273827871675 7.861366721125766 0 0 0
271 1 6.287081204010006 15.718728206624748 6.291360919175743 0 0 0
272 1 7.858369655233247 17.29110927103465 7.862441787073726 0 0 0
273 1 9.431098376948883 15.71857256907755 6.291757218981748 0 0 0
274 1 11.00194317857304 17.29154835407504 7.861978357082157 0 0 0
275 1 12.573279328197552 15.719473496724492 6.289921845553641 0 0 0
276 1 14.14839806656072 17.29419270264972 7.859438181054471 0 0 0
277 1 15.7200855616403 15.721651187497876 6.286936625808122 0 0 0
278 1 17.292033143393798 17.29321427704989 7.860260156380067 0 0 0
279 1 18.863962604522687 15.721239979143379 6.288036428359719 0 0 0
280 1 20.435632480892437 17.29307099064391 7.860786804172652 0 0 0
281 1 22.00725028986878 18.864879327934748 6.288958278974288 -1 0 0
282 1 1.5695496028432347 20.43693192084651 7.861221475949623 0 0 0
283 1 3.1415146930700404 18.86485084285577 6.289410044519598 0 0 0
284 1 4.713365601700628 20.43654592722348 7.8613621386721055 0 0 0
285 1 6.28584828816815 18.8636559743469 6.289760340640922 0 0 0
286 1 7.857561582579541 20.435811637818965 7.861333401325535 0 0 0
287 1 9.429809914749104 18.863663571339625 6.289528759559002 0 0 0
288 1 11.001973110230093 20.435669593166676 7.860994082918111 0 0 0
289 1 12.574223280576033 18.86393849577337 6.288995999211777 0 0 0
290 1 14.147368648296236 20.43613642564638 7.860286225324304 0 0 0
291 1 15.719593435855423 18.86485900621772 6.287862025440501 0 0 0
292 1 17.291477385616865 20.436468737892625 7.860532886535654 0 0 0
293 1 18.86341791019105 18.865065857982493 6.288368260842355 0 0 0
294 1 20.43549642973199 20.436814166278875 7.860955052724642 0 0 0
295 1 22.00717928705828 22.008701198233002 9.43336585609853 -1 -1 0
296 1 1.5692944399304192 1.5709392072210986 11.00569865126232 0 0 0
297 1 3.141511605250548 22.008647801672904 9.433601604810654 0 -1 0
298 1 4.713431147696936 1.5710532394011385 11.00582019336468 0 0 0
299 1 6.285455820910903 22.00826848136492 9.433311972169275 0 -1 0
300 1 7.85747776741149 1.5702278877008926 11.005567730417384 0 0 0
301 1 9.429494202283061 22.007447912374236 9.433092908882896 0 -1 0
302 1 11.001867749259622 1.5669934109782166 11.005418090256368 0 0 0
303 1 12.574814527568577 22.00678264532439 9.432714257622605 0 -1 0
304 1 14.14737469741428 1.56847357007844 11.005421846624644 0 0 0
305 1 15.719419847626417 22.007688934776766 9.432804139512596 0 -1 0
306 1 17.291229288493337 1.570484214815544 11.005318915280212 0 0 0
307 1 18.863379088218124 22.00837779828393 9.43299075324606 0 -1 0
308 1 20.435058816415847 1.5709946707908409 11.005443932935385 0 0 0
309 1 22.006985294949324 3.1430469880482157 9.433349973955034 -1 0 0
310 1 1.568826668709657 4.715091832137029 11.005855770477634 0 0 0
311 1 3.141333800478275 3.1430579195588555 9.433642190225653 0 0 0
312 1 4.713342667876479 4.714967032511037 11.005944497100334 0 0 0
313 1 6.285516277590476 3.1426050182640584 9.43342601969018 0 0 0
314 1 7.858535100737212 4.713983734913084 11.004691122785692 0 0 0
315 1 9.429311176826438 3.1410152312077275 9.432099151304653 0 0 0
316 1 11.00301771937692 4.69872919840749 11.004828215101202 0 0 0
317 1 12.576188136370376 3.136366314608927 9.431276534757677 0 0 0
318 1 14.149170994380468 4.709112478813644 11.005480467886088 0 0 0
319 1 15.719958483263012 3.1410008860105383 9.43221957448045 0 0 0
320 1 17.291255314969717 4.714441392155767 11.004913531399035 0 0 0
321 1 18.86327876347462 3.142598298505106 9.433010123768577 0 0 0
322 1 20.434461240569046 4.715055327659277 11.0054283222654 0 0 0
323 1 22.006358163798314 6.287149935949561 9.43342281475605 -1 0 0
324 1 1.5675920784787827 7.859054589051461 11.006006891807635 0 0 0
325 1 3.1407408315259633 6.286881553582003 9.433701956223283 0 0 0
326 1 4.711139653189948 7.8591106807937 11.006354357972302 0 0 0
327 1 6.284600948479668 6.285464174687857 9.432702477330771 0 0 0
328 1 7.854466946318542 7.855980846567162 10.999804770600074 0 0 0
329 1 9.432184700159208 6.289924747380704 9.43262812354872 0 0 0
330 1 11.007119234575853 7.798824199677186 11.004303159146307 0 0 0
331 1 12.582413415052676 6.2677950713743975 9.426713113946443 0 0 0
332 1 14.150867552913988 7.852054129022491 11.006774913094128 0 0 0
333 1 15.720520598566788 6.284960618099316 9.431602809635084 0 0 0
334 1 17.289911931332565 7.860410881831482 11.00414048952365 0 0 0
335 1 18.862770461300958 6.287007339525656 9.432733673300806 0 0 0
336 1 20.433718636021027 7.859462465215203 11.005301405504772 0 0 0
337 1 22.005748508374886 9.431125743084765 9.433020848907505 -1 0 0
338 1 1.565071968025572 11.003800225606359 11.006110019634425 0 0 0
339 1 3.138114420535124 9.430133762644363 9.432822894126478 0 0 0
340 1 4.695161838705675 11.003876714606589 11.007153976159387 0 0 0
341 1 6.282540891103573 9.426608325708758 9.430544929650917 0 0 0
342 1 7.770307525013475 11.00405915627426 11.00799719970875 0 0 0
343 1 9.449100749775829 9.444607846640809 9.455022558204956 0 0 0
344 1 20.434427163473547 20.43741729999443 20.438620945512763 0 0 0
345 1 12.63521439799447 9.382317441633138 9.384355618407456 0 0 0
346 1 14.202152487298646 11.01476927428346 11.008619646904203 0 0 0
347 1 15.71293109816872 9.433104261718045 9.432317291123052 0 0 0
348 1 17.300055106689626 11.00489336978185 11.004560234398012 0 0 0
349 1 18.86274195404055 9.431022936328901 9.431987145775285 0 0 0
350 1 20.43527678107323 11.003883483644335 11.00526537908185 0 0 0
351 1 22.006337281972918 12.576599591281427 9.433070513179757 -1 0 0
352 1 1.5682932600728399 14.148663856933911 11.006102132577047 0 0 0
353 1 3.1383184622500697 12.577553058818884 9.432768398475233 0 0 0
354 1 4.711819758671289 14.148158514771824 11.006917009241393 0 0 0
355 1 6.282386528410886 12.580906106497316 9.430734580139148 0 0 0
356 1 7.855818672619586 14.15170324140963 11.002500513957932 0 0 0
357 1 9.437082588235308 12.56628404926645 9.449936493720351 0 0 0
358 1 11.010865228897682 14.176070292249356 11.008797720008186 0 0 0
359 1 12.609422120322883 12.610312402180101 9.414191245852642 0 0 0
360 1 14.150649297988943 14.151399180786843 11.00669501997537 0 0 0
361 1 15.721066493842814 12.578258504249947 9.428457677278976 0 0 0
362 1 17.292691901580508 14.149286301038035 11.004309140425645 0 0 0
363 1 18.864621487360377 12.577352538238639 9.431642636630064 0 0 0
364 1 20.43522575639475 14.148966321521314 11.005424239422258 0 0 0
365 1 22.007143163610053 15.720980287093543 9.433261031631329 -1 0 0
366 1 1.569299566182672 17.293048840705683 11.005898760138319 0 0 0
367 1 3.1409050304119988 15.72078866000828 9.433810824744436 0 0 0
368 1 4.713004334335417 17.292734591862267 11.00628817055096 0 0 0
369 1 6.28463904734778 15.72165698762618 9.433550915338028 0 0 0
370 1 7.857077224732441 17.29426938458495 11.005403779326684 0 0 0
371 1 9.43095451184071 15.718512304353231 9.435196968468517 0 0 0
372 1 11.003181948606235 17.29792274682976 11.006011812052414 0 0 0
373 1 12.578479654867898 15.729126290648672 9.431934615116758 0 0 0
374 1 14.148540411709114 17.295113902537224 11.006047966785811 0 0 0
375 1 15.719868590449638 15.721355246993403 9.431885624745053 0 0 0
376 1 17.291939368044563 17.293240251907868 11.005089724750476 0 0 0
377 1 18.863724220838517 15.721163609297317 9.432661660222479 0 0 0
378 1 20.43540686209266 17.29326031882262 11.005507631493064 0 0 0
379 1 22.007320558808477 18.865047237540406 9.433278573650012 -1 0 0
380 1 1.5695008193308047 20.43668711689847 11.00572897892672 0 0 0
381 1 3.141408440953743 18.864627707449113 9.433552209109491 0 0 0
382 1 4.713116985807128 20.436675788947465 11.005895248886802 0 0 0
383 1 6.285130339416429 18.86491003465581 9.433419582963875 0 0 0
384 1 7.85734594504812 20.43665992781989 11.005769904257717 0 0 0
385 1 9.429870008377232 18.86438578261757 9.433465289401225 0 0 0
386 1 11.002120475072374 20.436767897053603 11.005688533684745 0 0 0
387 1 12.57538411946396 18.866226222260057 9.432863193805328 0 0 0
388 1 14.14733824752193 20.43655591441107 11.005683894951815 0 0 0
389 1 15.719795358692728 18.864996190097493 9.432865365847832 0 0 0
390 1 17.291479657542318 20.436662864441516 11.005427592431444 0 0 0
391 1 18.863710152048576 18.865048795365777 9.432976738069817 0 0 0
392 1 20.435323298748628 20.43705033474182 11.005530309096052 0 0 0
393 1 22.00681022244433 22.00892486977028 12.577884770153176 -1 -1 0
394 1 1.5688479799548118 1.571111608901506 14.150173443598511 0 0 0
395 1 3.14113473603262 22.008701508931605 12.578034475197509 0 -1 0
396 1 4.712841624397177 1.5709778685366813 14.1504952145371 0 0 0
397 1 6.285132275054416 22.008450594836646 12.578295038103455 0 -1 0
398 1 7.856689891051112 1.5702638503052089 14.150861936153152 0 0 0
399 1 9.429280820620361 22.007788086119373 12.578468229181814 0 -1 0
400 1 11.001636611134074 1.5698698977723462 14.150611965717653 0 0 0
401 1 12.574590683704356 22.007401577709057 12.578311856812563 0 -1 0
402 1 14.146944520901956 1.569950802945652 14.150739190100058 0 0 0
403 1 15.719317802378328 22.008152938344914 12.578076198226125 0 -1 0
404 1 17.290967320945477 1.5707931301142015 14.15030617624823 0 0 0
405 1 18.863150580216626 22.008650538316434 12.577909517164812 0 -1 0
406 1 20.43460172852475 1.571371887840982 14.150191314575167 0 0 0
407 1 22.006509890105065 3.14307070299956 12.577901404965218 -1 0 0
408 1 1.56822447972666 4.714911352337436 14.150321520527203 0 0 0
409 1 3.140921985684972 3.143017608337117 12.578111409287995 0 0 0
410 1 4.712431696059432 4.714618761562427 14.150642601641588 0 0 0
411 1 6.285285088130294 3.142702441134821 12.577877538250053 0 0 0
412 1 7.856035957062851 4.713287281934316 14.151300694646292 0 0 0
413 1 9.428595825376332 3.1394102860333732 12.579149177809425 0 0 0
414 1 11.00155348083382 4.713500396293067 14.150195704546471 0 0 0
415 1 12.575468231295066 3.1382211121555983 12.578839060733237 0 0 0
416 1 14.147448175120969 4.712542608107432 14.15120906774044 0 0 0
417 1 15.719555969693298 3.1412989834585217 12.578224403438115 0 0 0
418 1 17.290510639903133 4.714797232602547 14.150139589149921 0 0 0
419 1 18.86279446150314 3.142918509145996 12.577667362120962 0 0 0
420 1 20.433859213714012 4.715247788866336 14.149946011713016 0 0 0
421 1 22.00555545391269 6.2871472100998895 12.577878127961752 -1 0 0
422 1 1.5663970927915216 7.858583045926964 14.15127497626172 0 0 0
423 1 3.139940349380574 6.286766087143029 12.578415517196618 0 0 0
424 1 4.708483667969365 7.857027764859781 14.153423682337484 0 0 0
425 1 6.284725375706408 6.286348417378763 12.578297834691828 0 0 0
426 1 7.849882734112532 7.854934981948812 14.158289073879603 0 0 0
427 1 9.429130565014052 6.279325929391629 12.578309377367228 0 0 0
428 1 10.999101939425227 7.864444612948182 14.142869698482352 0 0 0
429 1 12.579204067551098 6.2761216502964094 12.581020716023884 0 0 0
430 1 14.140696612466906 7.860210253846953 14.14392096847862 0 0 0
431 1 15.720061846571639 6.284692336715341 12.577766016298458 0 0 0
432 1 17.28796534427233 7.859987536953704 14.14842401672773 0 0 0
433 1 18.861917239742166 6.287404616298161 12.577347591343408 0 0 0
434 1 20.432794511456258 7.859292399612608 14.150159973888293 0 0 0
435 1 22.004550586548408 9.4311880079128 12.578492084047355 -1 0 0
436 1 1.5663064078435887 11.003936979482578 14.151297053727687 0 0 0
437 1 3.1358192408019674 9.429967167123117 12.580342195226248 0 0 0
438 1 4.707690275586791 11.004213518621162 14.152868945904249 0 0 0
439 1 6.275758009804854 9.42657108618717 12.586357331844072 0 0 0
440 1 7.845124383550993 11.004784354793275 14.162640154532587 0 0 0