LAMMPS data file via write_data, version 2 Aug 2023, timestep = 30, units = metal

691 atoms
3 atom types

0 22.009546999999998 xlo xhi
0 22.009546999999998 ylo yhi
0 22.009546999999998 zlo zhi

Masses

1 183.84
2 1.008
3 4.0026

Atoms # atomic

1 1 0.0012675563543449368 22.009544272838962 22.0059571767005 0 -1 -1
2 1 1.572957049341569 1.5714853064229435 1.56815600187039 0 0 0
3 1 3.1449803302982895 22.009544072890204 22.005855683789704 0 -1 -1
4 1 4.716979353458126 1.571297296028123 1.567950160196237 0 0 0
5 1 6.289492718153117 22.009543865242726 22.00597114941794 0 -1 -1
6 1 7.861836313147092 1.5713379429971543 1.568122760375628 0 0 0
7 1 9.434329083166931 22.00954376395979 22.006158192873855 0 -1 -1
8 1 11.006700557224459 1.571437582017369 1.5684004306675767 0 0 0
9 1 12.579009296860237 22.009543947782916 22.00631381721355 0 -1 -1
10 1 14.151267838613524 1.571503877698638 1.5686435669132937 0 0 0
11 1 15.723328476847733 22.009544279993502 22.006315364576263 0 -1 -1
12 1 17.295380603681718 1.5715544485892934 1.5686865906183314 0 0 0
13 1 18.86724157129492 22.009544413397315 22.006188953338732 0 -1 -1
14 1 20.439100237552267 1.5715571114576894 1.5684756592507767 0 0 0
15 1 0.0014765428256604276 3.143307395135951 22.005978572536602 0 0 -1
16 1 1.5730475744971402 4.715078189648714 1.5680203734321614 0 0 0
17 1 3.144798584308269 3.142991460815279 22.005800659696124 0 0 -1
18 1 4.7162874278310545 4.7142473923700665 1.5673599152200535 0 0 0
19 1 6.289268688603165 3.1428034740043187 22.005926778189064 0 0 -1
20 1 7.861442037913072 4.714236521832162 1.567518312053476 0 0 0
21 1 9.434286503644843 3.142885067502182 22.006175306670645 0 0 -1
22 1 11.00684947264773 4.714497227036752 1.567943905302071 0 0 0
23 1 12.579186330950817 3.142989473169046 22.006375708080178 0 0 -1
24 1 14.151884313951527 4.714597654530641 1.5683430038705635 0 0 0
25 1 15.723717206794117 3.1430566863382756 22.006439121041332 0 0 -1
26 1 17.29626833948639 4.714809948666068 1.5684018751444482 0 0 0
27 1 18.86769140991958 3.143176465289434 22.00626447108269 0 0 -1
28 1 20.439665668767482 4.715161244148604 1.5683220811861722 0 0 0
29 1 0.0018672529114671722 6.287457406882481 22.006020623416436 0 0 -1
30 1 1.573283437908072 7.85969095391909 1.5679565258747636 0 0 0
31 1 3.144740514161093 6.287080775289588 22.005784312188354 0 0 -1
32 1 4.716004963690947 7.859005103716463 1.5670769270687726 0 0 0
33 1 6.288355284585578 6.286152548775137 22.00571762550158 0 0 -1
34 1 7.860093968337128 7.8579290781300655 1.5655865425938063 0 0 0
35 1 9.434096992268266 6.28631267821606 22.006138893221564 0 0 -1
36 1 11.007217602474913 7.858396494676891 1.566414442719111 0 0 0
37 1 12.579868627196722 6.286348280224922 22.006543819672164 0 0 -1
38 1 14.153160871487382 7.858560080964095 1.5673730917436 0 0 0
39 1 15.724843530883494 6.286631729373685 22.00665895270038 0 0 -1
40 1 17.29715004445267 7.8593612606543095 1.568158212297075 0 0 0
41 1 18.868511298488695 6.287201618181667 22.006405123982912 0 0 -1
42 1 20.44021536590385 7.8597299692608935 1.56825853708926 0 0 0
43 1 0.0021820548940415774 9.432261815841171 22.00606627907614 0 0 -1
44 1 1.5734199555002213 11.00477085819756 1.5679237248958362 0 0 0
45 1 3.1448805388739816 9.432122518084281 22.005761125562262 0 0 -1
46 1 4.716118440943756 11.004770560835034 1.5670546881334533 0 0 0
47 1 6.288126607063346 9.43161532822404 22.00567176057103 0 0 -1
48 1 7.8599248608075785 11.004770453624754 1.5649472992768212 0 0 0
49 1 9.43359829582721 9.431239089030592 22.005921845304943 0 0 -1
50 1 11.00739081954525 11.004770434941534 1.5637444316978513 0 0 0
51 1 12.580634307487074 9.43126192324648 22.0066520722053 0 0 -1
52 1 14.153185466081526 11.00477072083541 1.5671486822696243 0 0 0
53 1 15.725434849056922 9.431861562797371 22.006885277669454 0 0 -1
54 1 17.297434439866404 11.004771203044115 1.5681025396299444 0 0 0
55 1 18.868972180007383 9.43217424380329 22.00648219857328 0 0 -1
56 1 20.440424867112704 11.004771233324172 1.5682440335325285 0 0 0
57 1 0.0021823481865360186 12.577280485800877 22.006066316380622 0 0 -1
58 1 1.5732840494443223 14.14985076763031 1.5679567205240328 0 0 0
59 1 3.144880819982479 12.577419071817035 22.005761177151772 0 0 -1
60 1 4.716005465620388 14.150536038222286 1.5670770764669482 0 0 0
61 1 6.288126873403152 12.57792575891234 22.005671848077803 0 0 -1
62 1 7.860094473709777 14.151611744693207 1.5655866572656074 0 0 0
63 1 9.433598617997733 12.578301823122167 22.005921817233368 0 0 -1
64 1 11.007218212665355 14.151144346344577 1.5664144133270848 0 0 0
65 1 12.58063461511638 12.578279150750841 22.006651884053458 0 0 -1
66 1 14.15316142822317 14.150981359572384 1.5673730643106822 0 0 0
67 1 15.725435079641532 12.577680316507074 22.00688514705277 0 0 -1
68 1 17.29715043742085 14.150180963934671 1.5681583143231876 0 0 0
69 1 18.86897236257842 12.577368395443452 22.006482189077087 0 0 -1
70 1 20.440215837637655 14.149812328642062 1.5682587474792349 0 0 0
71 1 0.001867985777728425 15.72208462450833 22.006020747961355 0 0 -1
72 1 1.5730483691783277 17.294463347884683 1.568020568769439 0 0 0
73 1 3.1447412937627157 15.722460666905757 22.005784394665547 0 0 -1
74 1 4.716288266763222 17.295293611699094 1.5673600773885794 0 0 0
75 1 6.288356051164479 15.723388432866068 22.00571775654199 0 0 -1
76 1 7.861442907745174 17.295304059649393 1.5675184897814542 0 0 0
77 1 9.434097812619076 15.72322800279977 22.00613890798476 0 0 -1
78 1 11.006850395217127 17.29504344800404 1.5679439948568348 0 0 0
79 1 12.579869338689793 15.723192676062437 22.006543704477654 0 0 -1
80 1 14.151885034820625 17.294943676243726 1.568343029862724 0 0 0
81 1 15.724844116080208 15.722910038089992 22.006658861411918 0 0 -1
82 1 17.29626891587772 17.294731979632623 1.5684020851129477 0 0 0
83 1 18.868511835016793 15.722340630785729 22.006405197613788 0 0 -1
84 1 20.439666364638022 17.294380722926984 1.5683223992944029 0 0 0
85 1 0.0014771863243813936 18.866234304143106 22.00597868639322 0 0 -1
86 1 1.5729574110932436 20.438056056993705 1.5681560662611278 0 0 0
87 1 3.1447992818627934 18.866549794648027 22.0058007443546 0 0 -1
88 1 4.716979810141932 20.438243583617755 1.56795023761187 0 0 0
89 1 6.289269479772489 18.866737306586245 22.005926846733782 0 0 -1
90 1 7.861836779143238 20.43820259664946 1.5681228693570348 0 0 0
91 1 9.434287297905502 18.866655484718677 22.00617530952967 0 0 -1
92 1 11.006700974586606 20.43810310026926 1.5684004350193053 0 0 0
93 1 12.579187019743665 18.86655144618455 22.0063756705165 0 0 -1
94 1 14.15126819193253 20.43803746907571 1.5686435797827103 0 0 0
95 1 15.723717727671895 18.86648489810143 22.006439108778114 0 0 -1
96 1 17.295380895992793 20.43798729764455 1.5686867055218043 0 0 0
97 1 18.867691908370958 18.866365441837974 22.00626462145954 0 0 -1
98 1 20.439100581168674 20.437984576577268 1.5684758282320874 0 0 0
99 1 0.0011341059084798049 22.00954420033777 3.140401806993831 0 -1 0
100 1 1.5727937086747914 1.5714449028339983 4.712246310036215 0 0 0
101 1 3.1446716840635687 22.009543981845017 3.1399058514042495 0 -1 0
102 1 4.716386459695017 1.5709859519744862 4.711469464583992 0 0 0
103 1 6.289251440165776 22.00954378372565 3.139786909890438 0 -1 0
104 1 7.861486501857494 1.5710140193726727 4.711505748414181 0 0 0
105 1 9.434259796922367 22.009543726245546 3.1400649659821207 0 -1 0
106 1 11.006623704620406 1.571333554393378 4.711969589879258 0 0 0
107 1 12.578967641944812 22.009544009077246 3.1404342296736756 0 -1 0
108 1 14.151188475300081 1.571479039880092 4.71245183471662 0 0 0
109 1 15.7232583704623 22.00954428386774 3.140697763961723 0 -1 0
110 1 17.295322367183065 1.571497400384885 4.712701533559019 0 0 0
111 1 18.867143381744036 22.009544362223444 3.1406464065546196 0 -1 0
112 1 20.4389969712541 1.5715268295068319 4.712630309493979 0 0 0
113 1 0.0013710177844315672 3.1431578828207707 3.1401721682676644 0 0 0
114 1 1.5729162967644716 4.71475878857728 4.711744521477391 0 0 0
115 1 3.1444714233475652 3.1427194374239953 3.1395774202036093 0 0 0
116 1 4.715269663584849 4.713287836700346 4.710126674195075 0 0 0
117 1 6.288873051216805 3.1423376520679227 3.1392129284778667 0 0 0
118 1 7.860656824551033 4.712998740635126 4.709751344755202 0 0 0
119 1 9.434209464463397 3.1426960192301965 3.1395924309013026 0 0 0
120 1 11.006802488333076 4.714239578734988 4.710638759771274 0 0 0
121 1 12.579137907928137 3.142928709543542 3.140067646350275 0 0 0
122 1 14.151817600941506 4.714492195040802 4.71161504099222 0 0 0
123 1 15.72361065949029 3.1430507447686 3.140438234925778 0 0 0
124 1 17.296695198268946 4.714283809253743 4.711605866203536 0 0 0
125 1 18.867654921356944 3.143077208322138 3.1403737482890675 0 0 0
126 1 20.439979731984465 4.714746008345946 4.711944631868935 0 0 0
127 1 0.0018630054171632784 6.287268168002455 3.139922502744141 0 0 0
128 1 1.573276512335631 7.859472565404837 4.7114599738368685 0 0 0
129 1 3.1442715550383555 6.286754294856402 3.139180625213374 0 0 0
130 1 4.714762759653707 7.858278742624356 4.709453387211498 0 0 0
131 1 6.287101323571063 6.284965363417282 3.13698018633689 0 0 0
132 1 7.8564053185730565 7.85436644945041 4.7031304376799525 0 0 0
133 1 9.433884294152767 6.2858530179487575 3.137631990954224 0 0 0
134 1 11.007855271513437 7.857847129000248 4.705573343328843 0 0 0
135 1 12.579977772362772 6.286068765203024 3.138555015263179 0 0 0
136 1 14.154765791899207 7.857441416313986 4.7077278704521754 0 0 0
137 1 15.72514014617228 6.286278466795743 3.139068046723877 0 0 0
138 1 17.298458249984794 7.858603685409482 4.710228487054678 0 0 0
139 1 18.868723694365535 6.286940077223641 3.1397492272065772 0 0 0
140 1 20.440865563535894 7.859430040933644 4.711564103594823 0 0 0
141 1 0.002236286137052117 9.432188820078707 3.139825956341591 0 0 0
142 1 1.573560601201688 11.00477049356659 4.711379034462495 0 0 0
143 1 3.144477231331659 9.4320413600781 3.1390779653755607 0 0 0
144 1 4.715276280038674 11.004770221163689 4.709549698855979 0 0 0
145 1 6.286864893684721 9.431066978461443 3.136306101345563 0 0 0
146 1 7.856627156703118 11.004770089996944 4.701094838433141 0 0 0
147 1 9.432068859839381 9.430124229838126 3.1310756217925957 0 0 0
148 1 11.00725634272774 11.004770132741822 4.690357080992909 0 0 0
149 1 12.581531537912648 9.430443909844467 3.134794476291841 0 0 0
150 1 14.154634597778946 11.004770360896291 4.706519420989982 0 0 0
151 1 15.725959437825086 9.43175782272693 3.138330190135899 0 0 0
152 1 17.29886758396323 11.004770929162492 4.710119229580025 0 0 0
153 1 18.869310595939034 9.432073342138995 3.139599727686037 0 0 0
154 1 20.44123747289559 11.004770958685544 4.711500008197805 0 0 0
155 1 0.002236617658624763 12.57735300726885 3.1398261377210033 0 0 0
156 1 1.5732772473234016 14.15006851581966 4.7114601526163264 0 0 0
157 1 3.1444775278815436 12.577499741225157 3.139078030980568 0 0 0
158 1 4.714763458823223 14.1512617956244 4.709453480080831 0 0 0
159 1 6.286865151508819 12.578473714156734 3.1363061903174585 0 0 0
160 1 7.856405975718292 14.155173799192633 4.703130613843734 0 0 0
161 1 9.432069212714875 12.579416275103043 3.131075691062933 0 0 0
162 1 11.00785603532829 14.151693090698215 4.705573567917932 0 0 0
163 1 12.581531752205432 12.57909697605724 3.1347945392574164 0 0 0
164 1 14.15476622190784 14.152099610332922 4.707728078575514 0 0 0
165 1 15.72595971057544 12.577783908452876 3.1383302480384176 0 0 0
166 1 17.298458669202624 14.150938116332732 4.71022880463237 0 0 0
167 1 18.869310836069616 12.577468939796436 3.1395998963279173 0 0 0
168 1 20.440866202332824 14.150111745399503 4.711564403714284 0 0 0
169 1 0.001863797356283841 15.722273558083781 3.139922856147656 0 0 0
170 1 1.5729172946735346 17.29478233494357 4.711744818162251 0 0 0
171 1 3.1442724434768055 15.722786831862175 3.1391808438686453 0 0 0
172 1 4.715270697877886 17.296252759329317 4.7101268761588315 0 0 0
173 1 6.287102148598487 15.724575251012288 3.136980383842819 0 0 0
174 1 7.860657866513124 17.296541497370225 4.709751563873925 0 0 0
175 1 9.43388510935849 15.723687493543578 3.1376321616399623 0 0 0
176 1 11.006803504070412 17.29530081110866 4.710638994350002 0 0 0
177 1 12.579978492161306 15.723472114158682 3.138555205059546 0 0 0
178 1 14.151818305491203 17.29504897080972 4.711615335319707 0 0 0
179 1 15.72514072479895 15.723263172728787 3.139068261255353 0 0 0
180 1 17.296695844848916 17.295257958941665 4.711606270911792 0 0 0
181 1 18.86872430995363 15.722601952242925 3.139749639275509 0 0 0
182 1 20.439980590783655 17.294795564061605 4.711945060364242 0 0 0
183 1 0.0013717046847447302 18.86638362445465 3.1401724680943364 0 0 0
184 1 1.572794164809024 20.43809613823623 4.712246454450934 0 0 0
185 1 3.1444722174097786 18.86682157335878 3.1395776155448463 0 0 0
186 1 4.716386964816748 20.438554574729636 4.7114696127826825 0 0 0
187 1 6.2888738550020795 18.867202915366025 3.1392131337061406 0 0 0
188 1 7.861487012089174 20.438526235163 4.711505906028243 0 0 0
189 1 9.434210242523994 18.866844447128916 3.1395925628240193 0 0 0
190 1 11.00662418310621 20.43820700994977 4.711969690874859 0 0 0
191 1 12.579138574296065 18.866612185099903 3.1400677604783334 0 0 0
192 1 14.151188877268272 20.438062218580903 4.712451952382902 0 0 0
193 1 15.72361122588101 18.86649082890823 3.140438534312318 0 0 0
194 1 17.29532271035492 20.43804422658938 4.712701748704493 0 0 0
195 1 18.867655504803984 18.86646457605126 3.140374110145238 0 0 0
196 1 20.43899741412704 20.438014613734897 4.712630515650448 0 0 0
197 1 0.0010461041461439697 22.00954399505838 6.284744170411323 0 -1 0
198 1 1.572812871135331 1.5715126459682145 7.856769619307459 0 0 0
199 1 3.144538580688349 22.009543764827733 6.284259234939038 0 -1 0
200 1 4.716280790716385 1.5710221570513634 7.856241354149031 0 0 0
201 1 6.288541649868053 22.00954356329751 6.28353883439127 0 -1 0
202 1 7.860560817598027 1.5701086989034958 7.855515956675685 0 0 0
203 1 9.433993813323466 22.009543615103038 6.283834549134892 0 -1 0
204 1 11.00636781546627 1.570952465579934 7.8560850879416 0 0 0
205 1 12.578878616041733 22.009543935682576 6.284329120468559 0 -1 0
206 1 14.151039162124196 1.5714865968238068 7.856638428160733 0 0 0
207 1 15.723164882606097 22.009544229223653 6.284814132301593 0 -1 0
208 1 17.2950912566777 1.5716057168359272 7.857108502557237 0 0 0
209 1 18.867035640424117 22.009544260505105 6.28495574201503 0 -1 0
210 1 20.43891342049723 1.5716236920516817 7.857040549676911 0 0 0
211 1 0.001313722916013009 3.1431623086683897 6.284546235702993 0 0 0
212 1 1.5730120228657816 4.714808941339129 7.856462810366123 0 0 0
213 1 3.1443012798618226 3.142668329102228 6.283916279556035 0 0 0
214 1 4.715204663479773 4.713380047623461 7.8553373225025815 0 0 0
215 1 6.287616489567146 3.1410351769606772 6.28248890234408 0 0 0
216 1 7.857808738468891 4.70899232587357 7.852528254032109 0 0 0
217 1 9.433741556798523 3.141861004728947 6.282985837875061 0 0 0
218 1 11.00597545978373 4.712924686300436 7.8542308704973065 0 0 0
219 1 12.578969073993196 3.1428151165731473 6.283760622803268 0 0 0
220 1 14.15117419458726 4.714393510163 7.85616510291976 0 0 0
221 1 15.723484592458423 3.142935550121398 6.284488119280385 0 0 0
222 1 17.29621810352263 4.714418068197605 7.856505248867673 0 0 0
223 1 18.867548654372047 3.1430534790220097 6.284647350372849 0 0 0
224 1 20.439834860889302 4.7149202133465264 7.8566990249626985 0 0 0
225 1 0.002365927115248712 6.2868052070211835 6.283812663661714 0 0 0
226 1 1.5737411274808044 7.859123052203201 7.855847233731656 0 0 0
227 1 3.143831751773297 6.286292189127263 6.283061400640836 0 0 0
228 1 4.713727838593385 7.857682874583312 7.8541589608748925 0 0 0
229 1 6.284084054642841 6.281885410008242 6.2784786493368285 0 0 0
230 1 7.847488919283301 7.8435261707565145 7.841969910157741 0 0 0
231 1 9.432784464968366 6.28373834082641 6.27908248284331 0 0 0
232 1 11.006397284809191 7.85801452225541 7.845394900741986 0 0 0
233 1 12.580012622730601 6.286058792705826 6.281714876480258 0 0 0
234 1 14.162450979556226 7.852739387395836 7.8473774796220175 0 0 0
235 1 15.727027074362539 6.284539835650995 6.281319846626733 0 0 0
236 1 17.303122528066083 7.855495878789947 7.852317044821779 0 0 0
237 1 18.870136709073307 6.2858348669663275 6.28294753306345 0 0 0
238 1 20.442652725821702 7.858546251139693 7.855497259943183 0 0 0
239 1 0.0031053025707718177 9.432034309440565 6.283644875841003 0 0 0
240 1 1.5744140503496113 11.004770111310375 7.855827237176376 0 0 0
241 1 3.144327634125427 9.431921102931135 6.282842721786703 0 0 0
242 1 4.715173988916372 11.004769895801921 7.854539707418533 0 0 0
243 1 6.284262208864872 9.429490190083898 6.277856938361824 0 0 0
244 1 7.85005833043215 11.004769718290676 7.837813130019424 0 0 0
245 1 9.423604324032436 9.423737467978357 6.255990972471321 0 0 0
246 1 11.000170351567528 11.004769708635104 7.757452203264755 0 0 0
247 1 12.586756135071845 9.428818086796218 6.27273217265546 0 0 0
248 1 14.164194737032773 11.004770028023511 7.844690465370257 0 0 0
249 1 15.72990789998351 9.430660329267857 6.278982894527039 0 0 0
250 1 17.30395953688169 11.004770593488562 7.853489961722604 0 0 0
251 1 18.871297136040983 9.431637922541592 6.282707543230192 0 0 0
252 1 20.443435192432595 11.00477058915195 7.855643031136867 0 0 0
253 1 0.0031057196561811943 12.577506704630471 6.283644991380504 0 0 0
254 1 1.5737420375108335 14.150417199349018 7.855847362081279 0 0 0
255 1 3.1443280704023944 12.577619135573402 6.282842778061843 0 0 0
256 1 4.713728798773307 14.151856858536656 7.854159151765415 0 0 0
257 1 6.284262612970546 12.580049767742702 6.277857005137984 0 0 0
258 1 7.847490069675455 14.166013182114684 7.841970171086582 0 0 0
259 1 9.423604772223728 12.58580237322939 6.2559911060515745 0 0 0
260 1 11.006398188884122 14.151524976905943 7.845394974542762 0 0 0
261 1 12.586756471251013 12.580721999839188 6.272732324263015 0 0 0
262 1 14.162451494488069 14.15680077772644 7.847377663393803 0 0 0
263 1 15.729908246214265 12.578880693836851 6.278983016358088 0 0 0
264 1 17.303123190084307 14.154045433365756 7.852317332808671 0 0 0
265 1 18.87129748080426 12.57790374884713 6.282707657472072 0 0 0
266 1 20.44265357341544 14.150994914035989 7.855497416267671 0 0 0
267 1 0.002366955779308072 15.722735869075539 6.283812949370231 0 0 0
268 1 1.573013352431049 17.294731482292782 7.8564630170489425 0 0 0
269 1 3.143832873185858 15.723248210043293 6.283061601746189 0 0 0
270 1 4.715206066097632 17.29615982746435 7.8553375885401024 0 0 0
271 1 6.284085190995471 15.727654633894705 6.278478930503121 0 0 0
272 1 7.857810096050736 17.300547359307238 7.852528412635802 0 0 0
273 1 9.432785512495785 15.725801502532619 6.279082717561944 0 0 0
274 1 11.00597676089937 17.296615151787996 7.854230999492083 0 0 0
275 1 12.580013519756893 15.72348135686662 6.281715122364614 0 0 0
276 1 14.151175226286222 17.295147198143507 7.856165367174151 0 0 0
277 1 15.727027800533232 15.7250014565675 6.281320166026071 0 0 0
278 1 17.296218992998806 17.295123282923925 7.856505656613328 0 0 0
279 1 18.87013758623309 15.72370672617428 6.282947916820714 0 0 0
280 1 20.439836045310372 17.294620818930923 7.856699329303227 0 0 0
281 1 0.001314713622424067 18.866378750187398 6.284546465942222 0 0 0
282 1 1.5728134831519633 20.43802778277293 7.856769765755156 0 0 0
283 1 3.144302303663453 18.8668721798586 6.283916520915671 0 0 0
284 1 4.7162814418031145 20.43851787613398 7.856241442413828 0 0 0
285 1 6.2876175496345725 18.868504941024344 6.282489156711945 0 0 0
286 1 7.860561494248775 20.439431084537322 7.8555160455443565 0 0 0
287 1 9.433742579754174 18.867679065126097 6.282986070864518 0 0 0
288 1 11.006368433210215 20.438587807660564 7.856085132000756 0 0 0
289 1 12.578969871305947 18.866725521314596 6.28376081452436 0 0 0
290 1 14.151039711340983 20.4380544764323 7.856638543841834 0 0 0
291 1 15.72348525750428 18.86660588588428 6.284488478799184 0 0 0
292 1 17.29509169227408 20.437935634676045 7.857108715548858 0 0 0
293 1 18.867549421077445 18.866488056272498 6.2846477191776895 0 0 0
294 1 20.438913979406095 20.437917336697073 7.8570407372613635 0 0 0
295 1 0.0010660039619893218 22.009543731121063 9.429154011739081 0 -1 0
296 1 1.572928878671092 1.571567921790882 11.00131607157909 0 0 0
297 1 3.1446296987329063 22.00954346292584 9.42896176497427 0 -1 0
298 1 4.716421107031868 1.571122202328629 11.001348972709161 0 0 0
299 1 6.288472393685928 22.009543347827332 9.42870560516934 0 -1 0
300 1 7.860606289324595 1.570256457814436 11.001411079425102 0 0 0
301 1 9.433408317235761 22.009543392858912 9.428473598070008 0 -1 0
302 1 11.006096853882568 1.5696201027544885 11.001448337016912 0 0 0
303 1 12.57879120220309 22.009543787008532 9.428774098222632 0 -1 0
304 1 14.150666868649694 1.5716242857850062 11.001400717709126 0 0 0
305 1 15.722862029014264 22.00954409937689 9.429241365773656 0 -1 0
306 1 17.295021633222632 1.5716730626023467 11.001367203217066 0 0 0
307 1 18.866933302354102 22.009544083972898 9.429266501142585 0 -1 0
308 1 20.43893301028418 1.5716763066147554 11.001331885213355 0 0 0
309 1 0.0013714202381388755 3.143281537989551 9.429090803499184 0 0 0
310 1 1.5732580838135475 4.714946696433012 11.00133070428828 0 0 0
311 1 3.144484524010311 3.1428399981742943 9.428857303329105 0 0 0
312 1 4.715664399862597 4.713773809856773 11.001339704256116 0 0 0
313 1 6.287692246039298 3.141276399547845 9.42837084544585 0 0 0
314 1 7.85855814512308 4.7100795689191415 11.001516246267885 0 0 0
315 1 9.432282952767135 3.1389366088059956 9.427463164384353 0 0 0
316 1 11.003967723781605 4.704324047232321 11.001448933252004 0 0 0
317 1 12.578578815100126 3.1421432983528432 9.428208791440685 0 0 0
318 1 14.149556646844255 4.715259009052126 11.001222546792652 0 0 0
319 1 15.722957684919434 3.143322498890124 9.429249426393916 0 0 0
320 1 17.295823280625946 4.714864683439065 11.001407295127612 0 0 0
321 1 18.867351509693968 3.143305216291406 9.429193579540664 0 0 0
322 1 20.43989484188822 4.715045316763728 11.0013724747068 0 0 0
323 1 0.0025017328706473875 6.286986942011724 9.428883149585431 0 0 0
324 1 1.574317003569907 7.859348001844431 11.001283285627508 0 0 0
325 1 3.1442830315307573 6.286457995380969 9.428562672439229 0 0 0
326 1 4.715029157141272 7.858569312272037 11.001191065801967 0 0 0
327 1 6.284736691887618 6.282637464400312 9.426999673185954 0 0 0
328 1 7.85008657854204 7.847978048966556 11.002056296604925 0 0 0
329 1 9.426610239156634 6.2722408283536275 9.421903060151317 0 0 0
330 1 11.001715802999207 7.816960850948636 11.001885631743844 0 0 0
331 1 12.57453777282674 6.285744074585145 9.427224596342228 0 0 0
332 1 14.15278397108588 7.857670140249022 11.000017140139466 0 0 0
333 1 15.724719350762587 6.285389256973648 9.428582858030149 0 0 0
334 1 17.300703924839347 7.857773871261342 11.001882977991135 0 0 0
335 1 18.869397149188657 6.286446109762135 9.428851149466144 0 0 0
336 1 20.442540603007938 7.858941728123897 11.001465317421339 0 0 0
337 1 0.004642739276769698 9.431693465628232 9.428408232140836 0 0 0
338 1 1.5749642210526167 11.00476996296786 11.00128544507372 0 0 0
339 1 3.1445907887616236 9.431519692080643 9.427846884924127 0 0 0
340 1 4.711900346026597 11.00476969285039 11.000837477855105 0 0 0
341 1 6.284301806336978 9.428798612769999 9.42586574836022 0 0 0
342 1 7.822234737486852 11.004769173909615 10.997971063388151 0 0 0
343 1 9.378131071736773 9.386220404965469 9.355938042892861 0 0 0
344 1 20.43927538009966 20.43799622097269 20.43416187706144 0 0 0
345 1 12.614289571654664 9.394415282435896 9.37902181376862 0 0 0
346 1 14.268907724122732 11.004769751079289 10.99203389482906 0 0 0
347 1 15.743927274329058 9.421856921418138 9.41848326258099 0 0 0
348 1 17.32091582889611 11.00477042469589 11.001226524485292 0 0 0
349 1 18.876184683964414 9.429989616405985 9.4268345424521 0 0 0
350 1 20.446873216556725 11.004770457234727 11.001469555844192 0 0 0
351 1 0.0046433091224883545 12.577846989012961 9.42840822652653 0 0 0
352 1 1.5743180547949518 14.150191869618292 11.001283397791639 0 0 0
353 1 3.144591384355684 12.578019898770584 9.427846952580166 0 0 0
354 1 4.715030254843794 14.150969928228111 11.001191037509921 0 0 0
355 1 6.284302429968027 12.580740622336297 9.425865851085819 0 0 0
356 1 7.850087769041682 14.1615607813498 11.002056078567488 0 0 0
357 1 9.378131941190881 12.623318457019046 9.355938513360496 0 0 0
358 1 11.001717012256137 14.192578312524146 11.001885438097474 0 0 0
359 1 12.614289996391797 12.61512406070835 9.379021745811729 0 0 0
360 1 14.152784861894379 14.151869718205502 11.000017148596156 0 0 0
361 1 15.74392764119108 12.58768353335089 9.418483352836123 0 0 0
362 1 17.300704655200832 14.151767000432141 11.001883080848181 0 0 0
363 1 18.8761851553486 12.579551585305571 9.426834568013186 0 0 0
364 1 20.44254155888679 14.1505990709244 11.001465445515008 0 0 0
365 1 0.0025030118745036265 15.722553496344888 9.428883296768184 0 0 0
366 1 1.573259507585776 17.29459333614093 11.001330895854037 0 0 0
367 1 3.144284428345725 15.723081800754374 9.428562826124805 0 0 0
368 1 4.715665876354568 17.295765579674427 11.00133973723994 0 0 0
369 1 6.284738036704975 15.726901859402794 9.426999741716655 0 0 0
370 1 7.8585596913208 17.29945963454952 11.001516165184611 0 0 0
371 1 9.426611636903841 15.73729827232486 9.421902940269668 0 0 0
372 1 11.003969188035546 17.305215501444703 11.001448744019866 0 0 0
373 1 12.574539016580323 15.723795601413656 9.427224466902862 0 0 0
374 1 14.149557861456465 17.294281373301736 11.001222588063891 0 0 0
375 1 15.72472042928763 15.72415153250346 9.428582967652448 0 0 0
376 1 17.295824470435356 17.29467637633559 11.001407411389271 0 0 0
377 1 18.869398192137922 15.72309504789763 9.428851373142244 0 0 0
378 1 20.439896181350974 17.2944954040058 11.001372651884202 0 0 0
379 1 0.0013725463310960604 18.866258906232336 9.429091024663204 0 0 0
380 1 1.5729295656550866 20.43797218818478 11.001316121796679 0 0 0
381 1 3.1444856885932566 18.866699898381775 9.428857506683078 0 0 0
382 1 4.716421841545172 20.43841740593315 11.00134901309745 0 0 0
383 1 6.287693559510271 18.8682630811532 9.428370994437856 0 0 0
384 1 7.860607060314151 20.439282904713473 11.001411040842616 0 0 0
385 1 9.432284133422527 18.870602999999775 9.427463175324595 0 0 0
386 1 11.006097515090985 20.439919820323645 11.001448242271486 0 0 0
387 1 12.578579877235878 18.867396990500765 9.42820878539173 0 0 0
388 1 14.150667479902138 20.437916619202824 11.001400666678215 0 0 0
389 1 15.722958652999734 18.866218626684148 9.429249537019789 0 0 0
390 1 17.29502215825538 20.437868077924954 11.001367277418211 0 0 0
391 1 18.86735246249541 18.86623592822546 9.429193794152873 0 0 0
392 1 20.438933661944365 20.43786444859703 11.00133199624309 0 0 0
393 1 0.0011695694985256488 22.009543730007092 12.573474863581893 0 -1 0
394 1 1.5730333319921659 1.571591109885263 14.145777941747967 0 0 0
395 1 3.1447464415953266 22.00954346055716 12.573667282175325 0 -1 0
396 1 4.716544241714869 1.5711622567912515 14.14631233901323 0 0 0
397 1 6.288598142182999 22.00954318150133 12.574015399041809 0 -1 0
398 1 7.860762886178169 1.5704020993333958 14.147092130448033 0 0 0
399 1 9.433444548560834 22.009543215375544 12.57436038551237 0 -1 0
400 1 11.006329462550752 1.5707972861662043 14.146918883574132 0 0 0
401 1 12.57885787906824 22.00954372055568 12.57420251051833 0 -1 0
402 1 14.151317585059916 1.571118973366655 14.146501153705923 0 0 0
403 1 15.7229675498869 22.009544070308703 12.573574460476955 0 -1 0
404 1 17.295300618475178 1.5715705268028808 14.14568635117837 0 0 0
405 1 18.867020232616085 22.009544039618454 12.573439243033214 0 -1 0
406 1 20.43909438170313 1.5716371207479118 14.145604519052029 0 0 0
407 1 0.00149470695950687 3.1433466450677874 12.57355808017674 0 0 0
408 1 1.573404828608752 4.715009917814415 14.146062782420168 0 0 0
409 1 3.1446541908866203 3.142941958877498 12.573754694824958 0 0 0
410 1 4.715780645823586 4.7138467744799355 14.147024296130903 0 0 0
411 1 6.287877037113493 3.1414953726454002 12.574332639023995 0 0 0
412 1 7.858695384099356 4.71044609228368 14.149442039026233 0 0 0
413 1 9.432428419042779 3.139476222133227 12.575246502250803 0 0 0
414 1 11.005708933290487 4.712132684180201 14.149120514535522 0 0 0
415 1 12.578794489436445 3.1412191664452935 12.574908473438867 0 0 0
416 1 14.15227119466576 4.712661297995198 14.147851982131925 0 0 0
417 1 15.723096406295044 3.1432401056202095 12.573533305287768 0 0 0
418 1 17.29658452660758 4.714417154304228 14.146331900710083 0 0 0
419 1 18.867486450750206 3.143274426446353 12.573539608875777 0 0 0
420 1 20.44017051244046 4.7149597281951925 14.146012706085404 0 0 0
421 1 0.0027435018335660644 6.287052459911567 12.573816018032764 0 0 0
422 1 1.5744773729730592 7.859376637716221 14.146487837667468 0 0 0
423 1 3.1446932580696476 6.28665474985573 12.573948966325693 0 0 0
424 1 4.715744920315245 7.858711388464069 14.147193748126044 0 0 0
425 1 6.2854257992287765 6.283255172371189 12.575665866280529 0 0 0
426 1 7.852881330340011 7.848755460859537 14.155865870377946 0 0 0
427 1 9.427664115863784 6.275337570485168 12.58026881140335 0 0 0
428 1 11.004255868952166 7.8545468235915425 14.160880346750208 0 0 0
429 1 12.575702849806392 6.280930266770474 12.577003283634728 0 0 0
430 1 14.168265931851908 7.847468018162416 14.162365332184741 0 0 0
431 1 15.724811320999168 6.285567447735233 12.574118718588808 0 0 0
432 1 17.303190179678055 7.856308700511975 14.15006907503455 0 0 0
433 1 18.86961032361764 6.286387829003996 12.574090380119463 0 0 0
434 1 20.442895929989874 7.858768742187644 14.147118803277815 0 0 0
435 1 0.0048231066426789055 9.43172785744581 12.574237845993526 0 0 0
436 1 1.5751529096871448 11.004770170303816 14.146382133195697 0 0 0
437 1 3.145469894990094 9.431636011932108 12.574243878664012 0 0 0
438 1 4.716793389213899 11.004769899188005 14.146658463669876 0 0 0
439 1 6.287627464581252 9.429996579213508 12.57445491234902 0 0 0
440 1 7.852256494161574 11.00476966989544 14.161693858081696 0 0 0
441 1 9.390918842589178 9.404821778673169 12.638476411226238 0 0 0