LAMMPS data file via write_data, version 2 Aug 2023, timestep = 61, units = metal

690 atoms
3 atom types

0 22.009546999999998 xlo xhi
0 22.009546999999998 ylo yhi
0 22.009546999999998 zlo zhi

Masses

1 183.84
2 1.008
3 4.0026

Atoms # atomic

1 1 22.00841329871547 22.00954384488568 22.009473266368364 -1 -1 -1
2 1 1.5710124481510772 1.571865955864075 1.5721181772150163 0 0 0
3 1 3.142875225757327 22.009543845107498 0.0001992362056773044 0 -1 0
4 1 4.715010044751599 1.5718673940842103 1.5722080463193955 0 0 0
5 1 6.287097642581429 22.009543844687673 0.00023781291485300683 0 -1 0
6 1 7.8592929613232645 1.5718728826656758 1.5721378874387029 0 0 0
7 1 9.43145652045856 22.009543844604234 0.00010473849057035522 0 -1 0
8 1 11.003659536017087 1.5718697202299805 1.571919198881244 0 0 0
9 1 12.575784306133498 22.00954384445206 22.009422456078152 0 -1 -1
10 1 14.148057863700204 1.5718268111987155 1.571691247482125 0 0 0
11 1 15.720130994776605 22.009543844143003 22.009248679298235 0 -1 -1
12 1 17.292471358538492 1.571771272185656 1.571577597605849 0 0 0
13 1 18.864384140974526 22.00954384432146 22.009239574705603 0 -1 -1
14 1 20.43658011606168 1.571834629910532 1.5717814955622367 0 0 0
15 1 22.008401380598016 3.143720899776567 22.009507400831545 -1 0 -1
16 1 1.570988042624033 4.715715486659953 1.5721003280259411 0 0 0
17 1 3.1427948413571185 3.14369541772285 0.0003203643019031063 0 0 0
18 1 4.7148529049011225 4.715668002856901 1.572424425058357 0 0 0
19 1 6.287002525084208 3.143690142310105 0.00032006990386852405 0 0 0
20 1 7.859168986840678 4.715626784116633 1.572185479689858 0 0 0
21 1 9.431391870166717 3.143754097774473 0.0001223128867368741 0 0 0
22 1 11.003698070793769 4.715642052266072 1.5718009916074627 0 0 0
23 1 12.575797388056149 3.143727741687644 22.009353995161742 0 0 -1
24 1 14.148223777378634 4.715491414608188 1.5714122253904432 0 0 0
25 1 15.720224898599799 3.14367237721765 22.00913824060567 0 0 -1
26 1 17.292898819934166 4.715352806477108 1.5711861998584002 0 0 0
27 1 18.864479891121125 3.143680894862034 22.00912796993177 0 0 -1
28 1 20.436811945753025 4.715594393086741 1.5715581828760326 0 0 0
29 1 22.008400900415015 6.287866897566647 22.009530376932013 -1 0 -1
30 1 1.5710452967891717 7.860112109017509 1.5721671553407166 0 0 0
31 1 3.1425461631301346 6.287749765022381 0.0006222108169128591 0 0 0
32 1 4.714761180117875 7.860042220262246 1.5726516504103818 0 0 0
33 1 6.286401998510941 6.287354515716252 0.0007393430659797185 0 0 0
34 1 7.8584652359183105 7.859270604941987 1.571939412062374 0 0 0
35 1 9.431218676598425 6.287500423573541 0.00020935875908063644 0 0 0
36 1 11.00378561146523 7.859482780927456 1.5711887659559123 0 0 0
37 1 12.575957094675347 6.287488109299892 22.00915210933914 0 0 -1
38 1 14.14937171409837 7.8589963770615325 1.569943574876095 0 0 0
39 1 15.720840734897854 6.287285096327679 22.008690914015265 0 0 -1
40 1 17.293392998287832 7.859646417655951 1.5703952049520555 0 0 0
41 1 18.864699371034856 6.28772297224834 22.008872956798974 0 0 -1
42 1 20.436996621405488 7.860001729222908 1.5713558954450757 0 0 0
43 1 22.008380495460898 9.432429093324206 1.442294886899731e-05 -1 0 0
44 1 1.571066699515746 11.004770343678752 1.5722086784606861 0 0 0
45 1 3.1424922100537507 9.432397408320735 0.0008495139608224768 0 0 0
46 1 4.714840846740562 11.004770343998308 1.5727879453584486 0 0 0
47 1 6.28637198686594 9.432218023023932 0.0012764807343409368 0 0 0
48 1 7.858919330119413 11.004770344950009 1.5723015761771129 0 0 0
49 1 9.430700660967563 9.431659338142373 0.0005883683571781262 0 0 0
50 1 11.003839336509818 11.004770345134265 1.5685708709984227 0 0 0
51 1 12.576566769083934 9.431631211102633 22.008690500454538 0 0 -1
52 1 14.149253598696792 11.004770345125879 1.569158067465202 0 0 0
53 1 15.720903569131364 9.432185355273473 22.00810881910352 0 0 -1
54 1 17.293488602202213 11.004770344311451 1.5701330267623734 0 0 0
55 1 18.864746275382167 9.432357882419526 22.0087017644121 0 0 -1
56 1 20.437055505251557 11.004770344372327 1.5712665313894507 0 0 0
57 1 22.008380495684225 12.577111594223675 1.4422926746249232e-05 -1 0 0
58 1 1.5710452964047126 14.149428578638215 1.5721671549326108 0 0 0
59 1 3.1424922101940043 12.57714327935515 0.0008495143820954628 0 0 0
60 1 4.714761179927934 14.149498468059459 1.5726516501553196 0 0 0
61 1 6.286371986540935 12.577322665798118 0.0012764805274395412 0 0 0
62 1 7.858465235792787 14.15027008500251 1.571939410722395 0 0 0
63 1 9.430700660492413 12.577881351886164 0.0005883671638251542 0 0 0
64 1 11.00378561123159 14.15005790958517 1.5711887632385033 0 0 0
65 1 12.576566768979681 12.577909479117464 22.008690498229885 0 0 -1
66 1 14.149371714164646 14.150544312904266 1.5699435717950365 0 0 0
67 1 15.720903568781825 12.577355334082956 22.008108817689333 0 0 -1
68 1 17.293392997724588 14.149894271512855 1.5703952034611377 0 0 0
69 1 18.86474627500012 12.577182806111155 22.00870176412757 0 0 -1
70 1 20.43699662070477 14.14953895825077 1.5713558951435131 0 0 0
71 1 22.008400900134042 15.721673790957984 22.00953037723421 -1 0 -1
72 1 1.5709880420966746 17.29382520204226 1.5721003285503392 0 0 0
73 1 3.1425461625759867 15.72179092430654 0.0006222113269347921 0 0 0
74 1 4.714852904183735 17.293872685794042 1.5724244253177613 0 0 0
75 1 6.286401997802362 15.722186173793718 0.0007393426456397703 0 0 0
76 1 7.859168985929542 17.293913906416 1.5721854784066331 0 0 0
77 1 9.431218676510667 15.722040266203797 0.00020935688367471926 0 0 0
78 1 11.00369807110954 17.293898637359867 1.571800989115128 0 0 0
79 1 12.575957094755125 15.722052580773205 22.009152105749617 0 0 -1
80 1 14.14822377738094 17.29404927504224 1.5714122224566698 0 0 0
81 1 15.72084073443899 15.722255592446153 22.008690911358364 0 0 -1
82 1 17.29289881968456 17.29418788275945 1.571186198174445 0 0 0
83 1 18.86469937080354 15.721817715977258 22.008872956082627 0 0 -1
84 1 20.436811945440258 17.293946295171935 1.5715581826644136 0 0 0
85 1 22.008401380586808 18.86581978981653 22.009507401080636 -1 0 -1
86 1 1.5710124482061587 20.437674733973672 1.5721181782853781 0 0 0
87 1 3.142794840959767 18.86584527216397 0.0003203647305932366 0 0 0
88 1 4.715010044399926 20.43767329623065 1.5722080464095778 0 0 0
89 1 6.2870025240513 18.865850547248343 0.00032006977289402274 0 0 0
90 1 7.859292961048527 20.43766780683854 1.572137886933303 0 0 0
91 1 9.431391870067833 18.865786591876912 0.00012231160806055671 0 0 0
92 1 11.003659535974833 20.43767096863088 1.5719191988072359 0 0 0
93 1 12.57579738799948 18.865812947884066 22.00935399304011 0 0 -1
94 1 14.14805786367506 20.437713877728704 1.5716912467125626 0 0 0
95 1 15.720224898718943 18.865868311443624 22.00913823849182 0 0 -1
96 1 17.292471358566303 20.43776941657438 1.5715775970120505 0 0 0
97 1 18.86447989141239 18.865859793597288 22.009127969374873 0 0 -1
98 1 20.4365801163913 20.437706059572438 1.5717814956769383 0 0 0
99 1 22.008642804365696 22.009543844736886 3.144016299256753 -1 -1 0
100 1 1.571087968729833 1.5718482644135796 4.716193498453252 0 0 0
101 1 3.143067292780487 22.009543844834145 3.14421724759479 0 -1 0
102 1 4.7150710497363715 1.5719720791022922 4.716242415155876 0 0 0
103 1 6.287093693105017 22.009543845092125 3.144093023501929 0 -1 0
104 1 7.859084381189379 1.571810973156162 4.715903899075063 0 0 0
105 1 9.43146260278047 22.009543844914244 3.143966209576431 0 -1 0
106 1 11.003693712715261 1.5718330579536357 4.715774527209713 0 0 0
107 1 12.57589907518402 22.009543844685687 3.1437423398976954 0 -1 0
108 1 14.148259165649005 1.571777648196205 4.715535617818331 0 0 0
109 1 15.7203871977556 22.009543844746048 3.1436004036557605 0 -1 0
110 1 17.29292972375185 1.571654443250369 4.7154766119441085 0 0 0
111 1 18.864724085864793 22.009543844620456 3.1436870433642743 0 -1 0
112 1 20.436788199144406 1.5717784741141045 4.715979323892764 0 0 0
113 1 22.00876834931944 3.143698265039107 3.1439256105027735 -1 0 0
114 1 1.5712851533047278 4.715653611110495 4.716006427861519 0 0 0
115 1 3.143162859598739 3.1438694448434368 3.1442989438444773 0 0 0
116 1 4.715383551009279 4.71614592808592 4.716581848021737 0 0 0
117 1 6.2870472649707185 3.1437385109387783 3.1441342184879333 0 0 0
118 1 7.859025536606384 4.7154709452382875 4.715877118652494 0 0 0
119 1 9.431490760859104 3.1437718710643843 3.143929534164549 0 0 0
120 1 11.003859717983552 4.715682248317136 4.715618386043544 0 0 0
121 1 12.575943352271747 3.143678422937816 3.143650555595276 0 0 0
122 1 14.148459447794757 4.715321797170625 4.71510777554732 0 0 0
123 1 15.720536217341285 3.1435036037355677 3.1433450825112423 0 0 0
124 1 17.29325039120653 4.715149087535446 4.715105113437354 0 0 0
125 1 18.864850827323387 3.143564548876045 3.1435562815578324 0 0 0
126 1 20.437160133239217 4.7153769053077905 4.715511375075581 0 0 0
127 1 22.00903503504315 6.287730886612329 3.14365954759223 -1 0 0
128 1 1.5714751707517316 7.860047514323802 4.715860162417909 0 0 0
129 1 3.1430242504840207 6.287835769711112 3.144168379567485 0 0 0
130 1 4.714908302691792 7.86000145215278 4.716086544079864 0 0 0
131 1 6.28677338567839 6.2875517873340465 3.1441989846260774 0 0 0
132 1 7.85795502863141 7.858622950771992 4.715036557974934 0 0 0
133 1 9.431524889544034 6.2875465780018684 3.143792343081398 0 0 0
134 1 11.003994553763144 7.860221049832474 4.714816021304345 0 0 0
135 1 12.576140651283623 6.287431114847204 3.1432478338411625 0 0 0
136 1 14.151495826556387 7.857573125164993 4.711395664345609 0 0 0
137 1 15.721653760857672 6.286757066563246 3.142125762143607 0 0 0
138 1 17.29525212617122 7.858627941434818 4.7130679098248445 0 0 0
139 1 18.865602472299468 6.2872554776722 3.1427439332866096 0 0 0
140 1 20.437903133386413 7.859677917506716 4.714920075086312 0 0 0
141 1 22.009200706539286 9.432365886822248 3.143551005643618 -1 0 0
142 1 1.5715933122101735 11.00477034374038 4.715908134101689 0 0 0
143 1 3.1431812485210666 9.432474164256233 3.144311796095552 0 0 0
144 1 4.715212256028759 11.004770344447364 4.716357272903041 0 0 0
145 1 6.287014892684979 9.43245579806221 3.144416875073733 0 0 0
146 1 7.860076560972494 11.00477034500108 4.715829842143814 0 0 0
147 1 9.430118292791706 9.430650791975992 3.141247283421114 0 0 0
148 1 11.003983160642374 11.004770345953377 4.697250988282829 0 0 0
149 1 12.578181285496782 9.430607299979979 3.1388904681524625 0 0 0
150 1 14.151432563549834 11.004770344680994 4.7087718051634955 0 0 0
151 1 15.722486698515931 9.431783829561024 3.140594686160545 0 0 0
152 1 17.295554868422364 11.004770343969508 4.712748677097018 0 0 0
153 1 18.8659504824976 9.432177487858999 3.142351860365264 0 0 0
154 1 20.43815311353708 11.004770343943814 4.7147686700276745 0 0 0
155 1 22.00920070581234 12.577174800436921 3.143551005620812 -1 0 0
156 1 1.5714751700000056 14.149493174209109 4.715860161380364 0 0 0
157 1 3.143181248117538 12.577066523543012 3.1443117956256 0 0 0
158 1 4.714908300971249 14.149539237415011 4.7160865428234855 0 0 0
159 1 6.287014892571687 12.57708489146919 3.144416874536521 0 0 0
160 1 7.857955028090931 14.150917738796103 4.715036558050988 0 0 0
161 1 9.430118292527224 12.57888989836643 3.141247282696445 0 0 0
162 1 11.00399455172636 14.149319643985093 4.714816015624447 0 0 0
163 1 12.578181285651317 12.578933391256147 3.1388904653976915 0 0 0
164 1 14.151495828719407 14.151967567666327 4.711395658614491 0 0 0
165 1 15.722486698500589 12.577756859445735 3.14059468536815 0 0 0
166 1 17.295252126916303 14.150912747369576 4.713067908087053 0 0 0
167 1 18.865950481878077 12.577363200291668 3.142351860632418 0 0 0
168 1 20.437903133210625 14.149862771336 4.714920074698144 0 0 0
169 1 22.009035034338797 15.72180980145816 3.1436595471106883 -1 0 0
170 1 1.5712851532347167 17.293887077422763 4.716006427606287 0 0 0
171 1 3.1430242496782106 15.721704918685441 3.1441683792318846 0 0 0
172 1 4.715383551583415 17.293394760747816 4.716581848144796 0 0 0
173 1 6.286773384941687 15.72198890186653 3.1441989843364384 0 0 0
174 1 7.859025534482775 17.294069746332738 4.7158771165127735 0 0 0
175 1 9.431524887842242 15.721994113217775 3.1437923400252017 0 0 0
176 1 11.003859716152306 17.293858445775417 4.715618381874259 0 0 0
177 1 12.576140651278575 15.722109576005682 3.1432478307446443 0 0 0
178 1 14.14845944870617 17.29421889524913 4.715107772237006 0 0 0
179 1 15.721653761774693 15.722783623493907 3.1421257589238762 0 0 0
180 1 17.29325039255738 17.29439160308043 4.7151051106278965 0 0 0
181 1 18.865602471944285 15.722285211151508 3.1427439325558915 0 0 0
182 1 20.437160133189632 17.294163783848177 4.715511374899928 0 0 0
183 1 22.00876834949703 18.865842423922466 3.143925610312426 -1 0 0
184 1 1.57108796892191 20.437692425312434 4.716193498863598 0 0 0
185 1 3.1431628595162335 18.865671244313653 3.1442989437159103 0 0 0
186 1 4.715071049616973 20.437568609790983 4.716242415550326 0 0 0
187 1 6.287047263818145 18.86580217949631 3.144134217836132 0 0 0
188 1 7.859084380216041 20.43772971747951 4.7159038987000095 0 0 0
189 1 9.431490759770787 18.86576881968402 3.1439295322849654 0 0 0
190 1 11.003693712214266 20.43770763268138 4.7157745266000015 0 0 0
191 1 12.57594335256658 18.86586226664334 3.1436505537563604 0 0 0
192 1 14.148259165409746 20.437763041753463 4.715535616677354 0 0 0
193 1 15.720536217418063 18.866037085860842 3.143345080480441 0 0 0
194 1 17.292929723636263 20.437886245963643 4.7154766112506135 0 0 0
195 1 18.864850827872054 18.865976140389545 3.143556280359491 0 0 0
196 1 20.436788198412394 20.43776221467101 4.715979323806024 0 0 0
197 1 22.008667282767792 22.009543844496704 6.288310018606772 -1 -1 0
198 1 1.571008181684124 1.5718438015706153 7.860513628942838 0 0 0
199 1 3.1429575947978097 22.00954384486068 6.288289432795809 0 -1 0
200 1 4.714797978926362 1.5718339047843388 7.860302208602157 0 0 0
201 1 6.286944212896516 22.009543844953875 6.2881137742043265 0 -1 0
202 1 7.858810947144097 1.5717123787885114 7.859957966526276 0 0 0
203 1 9.431184646626976 22.009543845483687 6.287732533992774 0 -1 0
204 1 11.003433471763607 1.5711694494317572 7.859615927927098 0 0 0
205 1 12.576021080212012 22.00954384553314 6.287609405025148 0 -1 0
206 1 14.14910999227108 1.5709530646359093 7.859216263465999 0 0 0
207 1 15.72099851948509 22.00954384479947 6.287385717808523 0 -1 0
208 1 17.292767385817598 1.5718006361096073 7.860134988777126 0 0 0
209 1 18.864765945747088 22.009543844475445 6.288095994520137 0 -1 0
210 1 20.436660950183988 1.5718371735751828 7.860386566767184 0 0 0
211 1 22.008737646845553 3.1436611337553018 6.288206687402774 -1 0 0
212 1 1.5710489416565985 4.7156177447734215 7.860376932692556 0 0 0
213 1 3.1429912196010155 3.1437550353467962 6.288272287137569 0 0 0
214 1 4.714728267417266 4.715543348979076 7.860260941287669 0 0 0
215 1 6.286986197135422 3.1439720945932774 6.288184336075463 0 0 0
216 1 7.858768689912187 4.715736873032899 7.8599249027372675 0 0 0
217 1 9.431042019182485 3.143275497618057 6.28755557792704 0 0 0
218 1 11.00232504774706 4.713861605687062 7.859164415101819 0 0 0
219 1 12.575989758899315 3.1434503007434103 6.2875591096046675 0 0 0
220 1 14.150839376560267 4.712681331007227 7.857401309777866 0 0 0
221 1 15.72141133460927 3.142838171298899 6.286909597962017 0 0 0
222 1 17.293108788914502 4.715421652092706 7.859891972867294 0 0 0
223 1 18.86497113013306 3.143535800852405 6.2878770030977975 0 0 0
224 1 20.436853112244183 4.715514532155925 7.860150385977115 0 0 0
225 1 22.009164855091395 6.287323256485377 6.287532492568516 -1 0 0
226 1 1.570802945229109 7.859266403255319 7.859557053746232 0 0 0
227 1 3.143016735868177 6.287569100585966 6.287944396813493 0 0 0
228 1 4.71391636872008 7.858650171127163 7.859152401828606 0 0 0
229 1 6.288097331284614 6.288966132195392 6.289305583181984 0 0 0
230 1 7.862508394383691 7.863321747521927 7.8636763872255635 0 0 0
231 1 9.431017687789774 6.286865488735768 6.287492733100445 0 0 0
232 1 10.998167081616712 7.861336002421621 7.861590474041975 0 0 0
233 1 12.57577882265202 6.287807440808729 6.28805658924584 0 0 0
234 1 14.15349978439749 7.858824683678113 7.854554362452668 0 0 0
235 1 15.722183400169897 6.286522105475331 6.2861033396675 0 0 0
236 1 17.29664332727166 7.8577809924124296 7.856980934774521 0 0 0
237 1 18.866125455498608 6.28683748329999 6.2867116838956285 0 0 0
238 1 20.438263993471633 7.859043350747227 7.858960607435147 0 0 0
239 1 0.00015518406619308476 9.432213419617893 6.287406999860422 0 0 0
240 1 1.5711684909440975 11.004770345150812 7.8599747658275305 0 0 0
241 1 3.143264157967763 9.432456750759243 6.288163995392925 0 0 0
242 1 4.714717844383677 11.004770345092872 7.861254572985011 0 0 0
243 1 6.286784898284167 9.432539764593763 6.287956826509604 0 0 0
244 1 7.861283294703643 11.004770348851329 7.862401567163981 0 0 0
245 1 9.425472075595279 9.425726437903721 6.284797223013788 0 0 0
246 1 10.995279463158564 11.004770348311924 7.761508119418527 0 0 0
247 1 12.585509862574282 9.427227936908357 6.277534158008369 0 0 0
248 1 14.165449368169044 11.00477034894033 7.8421648600017555 0 0 0
249 1 15.727193707994854 9.430141763683205 6.281118907569951 0 0 0
250 1 17.299187398660273 11.004770344526067 7.857056111339301 0 0 0
251 1 18.867626724394555 9.431828082141745 6.2858601570517605 0 0 0
252 1 20.439002987664345 11.004770344599253 7.859089610013825 0 0 0
253 1 0.0001551838256278124 12.577327269260929 6.2874069993831805 0 0 0
254 1 1.570802944695593 14.150274287108385 7.859557053475573 0 0 0
255 1 3.1432641574536304 12.577083938888066 6.288163994747309 0 0 0
256 1 4.713916369679538 14.150890518189897 7.859152400718076 0 0 0
257 1 6.286784896990164 12.577000927198226 6.28795682385855 0 0 0
258 1 7.862508408662411 14.146218929088738 7.863676399695375 0 0 0
259 1 9.425472073756989 12.583814254677696 6.284797221507963 0 0 0
260 1 10.99816706705196 14.148204710200869 7.861590448612207 0 0 0
261 1 12.585509863576156 12.58231276112723 6.277534146839065 0 0 0
262 1 14.153499799900375 14.150716031259742 7.854554341484533 0 0 0
263 1 15.72719370908197 12.57939892716175 6.281118905127156 0 0 0
264 1 17.296643328416916 14.151759697431531 7.856980933629433 0 0 0
265 1 18.867626724269755 12.57771260628943 6.285860156403672 0 0 0
266 1 20.438263992599765 14.150497338308593 7.85896060707066 0 0 0
267 1 22.00916485447676 15.722217431917775 6.287532492500432 -1 0 0
268 1 1.5710489401630496 17.293922945017272 7.860376931912848 0 0 0
269 1 3.143016735917947 15.72197158802829 6.287944396713471 0 0 0
270 1 4.714728263874241 17.293997343139672 7.8602609391932345 0 0 0
271 1 6.288097333770806 15.72057455435743 6.2893055849514585 0 0 0
272 1 7.858768690084584 17.29380381472898 7.859924903005023 0 0 0
273 1 9.431017682651511 15.722675207720526 6.28749272668918 0 0 0
274 1 11.002325044753432 17.29567908965373 7.8591644117096084 0 0 0
275 1 12.575778822064034 15.721733258344132 6.288056581685271 0 0 0
276 1 14.150839377823829 17.296859364506236 7.85740130774062 0 0 0
277 1 15.72218340565074 15.723018590796864 6.286103333222129 0 0 0
278 1 17.29310878891042 17.29411903864376 7.85989197267478 0 0 0
279 1 18.866125455233284 15.722703206175542 6.286711683118848 0 0 0
280 1 20.436853111649338 17.29402615618058 7.8601503860077075 0 0 0
281 1 22.00873764653873 18.86587955476554 6.288206686809431 -1 0 0
282 1 1.571008181564079 20.4376968872817 7.8605136286486115 0 0 0
283 1 3.1429912189067912 18.865785654511477 6.288272286164083 0 0 0
284 1 4.714797978299321 20.437706785415163 7.860302208283797 0 0 0
285 1 6.286986196838206 18.8655685944654 6.288184336756942 0 0 0
286 1 7.858810946732332 20.43782831122929 7.859957966702399 0 0 0
287 1 9.431042016837482 18.866265194734737 6.287555576330266 0 0 0
288 1 11.003433470828778 20.438371242481622 7.859615927442798 0 0 0
289 1 12.575989758165782 18.86609039214135 6.287559108318751 0 0 0
290 1 14.149109991497742 20.438587626811607 7.859216262950203 0 0 0
291 1 15.721411334662916 18.86670252028227 6.2869095962921815 0 0 0
292 1 17.29276738544481 20.43774005269227 7.860134988608988 0 0 0
293 1 18.86497112959408 18.866004888208064 6.28787700270797 0 0 0
294 1 20.436660949343764 20.43770351437257 7.8603865666697805 0 0 0
295 1 22.008499352034967 22.00954384430924 9.432653689072335 -1 -1 0
296 1 1.5707816136747157 1.5718427889006796 11.00481927165008 0 0 0
297 1 3.1428718936155144 22.009543844579397 9.432670780787705 0 -1 0
298 1 4.7147016562265325 1.5718489140626783 11.004847417104962 0 0 0
299 1 6.286670535748541 22.00954384585942 9.432355165039583 0 -1 0
300 1 7.85857106122992 1.5712203253911705 11.004541649958968 0 0 0
301 1 9.430982816597908 22.009543844901874 9.432079458333465 0 -1 0
302 1 11.00364495569184 1.569760785935788 11.00470253866861 0 0 0
303 1 12.576469830075917 22.00954384524254 9.431858325893637 0 -1 0
304 1 14.148715852243217 1.571181948287139 11.00486205690761 0 0 0
305 1 15.720700930449565 22.009543843829483 9.432320229670019 0 -1 0
306 1 17.292499004165542 1.5718642760621013 11.004635436928055 0 0 0
307 1 18.86457014613364 22.009543843997996 9.432501220007302 0 -1 0
308 1 20.43638017572854 1.5718632836564652 11.004715204307093 0 0 0
309 1 22.008498615924623 3.1436957429912997 9.432582143197374 -1 0 0
310 1 1.5706489546746185 4.715634032297438 11.004846877406226 0 0 0
311 1 3.142818938815218 3.1437837720345505 9.432699207903255 0 0 0
312 1 4.714523599435695 4.715759261646584 11.005003933355871 0 0 0
313 1 6.286464144676631 3.143358672827288 9.432222370266429 0 0 0
314 1 7.858079879654645 4.713889330217496 11.003491134291806 0 0 0
315 1 9.430693986248448 3.1422865987507023 9.43176958650748 0 0 0
316 1 11.003612812275803 4.70532112752217 11.004750082187586 0 0 0
317 1 12.577137657613237 3.139285240089582 9.431163304581677 0 0 0
318 1 14.149120085810052 4.7139243696799165 11.00589281149097 0 0 0
319 1 15.72070409979546 3.1435198680287235 9.432301525108542 0 0 0
320 1 17.29259076828458 4.715781244536567 11.00437615852362 0 0 0
321 1 18.86461145786367 3.143714216914771 9.432404165648125 0 0 0
322 1 20.436429946951808 4.715619585861862 11.004583109421478 0 0 0
323 1 22.008619264354827 6.28749326008008 9.432360547264375 -1 0 0
324 1 1.5700469089030316 7.859508905433567 11.004880078527203 0 0 0
325 1 3.1426712541292545 6.287597592743909 9.432679561045182 0 0 0
326 1 4.713686103718055 7.860266692541787 11.005160139453217 0 0 0
327 1 6.28637508518433 6.2869163363319585 9.432222492409267 0 0 0
328 1 7.860548676151777 7.861472469088689 10.99933171396922 0 0 0
329 1 9.429684960456129 6.287408877026395 9.430834035561197 0 0 0
330 1 11.004102672254545 7.8149396534964986 11.005262865403912 0 0 0
331 1 12.579608377089803 6.269676684807161 9.428620643137117 0 0 0
332 1 14.145993128011849 7.861999990132215 11.009754007652301 0 0 0
333 1 15.719992191656294 6.288062316416158 9.432503954278296 0 0 0
334 1 17.293286637527075 7.860330158799628 11.004235268787983 0 0 0
335 1 18.864941737821777 6.287500351278208 9.43215919854898 0 0 0
336 1 20.43700586739696 7.859493082253461 11.004502286360838 0 0 0
337 1 22.00902906488716 9.431636390248576 9.431737011518061 -1 0 0
338 1 1.5674244932647552 11.004770345350162 11.004884333411136 0 0 0
339 1 3.140107955363225 9.430662382725838 9.431216794486815 0 0 0
340 1 4.696097245491591 11.004770346117411 11.005082733358984 0 0 0
341 1 6.28375028011797 9.425818377022598 9.426669533150259 0 0 0
342 1 7.760768991591827 11.00477034820671 10.996477682343267 0 0 0
343 1 9.437087388117936 9.438605192248223 9.438098207744545 0 0 0
344 1 20.43625278990706 20.43768120712607 20.437307125270852 0 0 0
345 1 12.610591200123665 9.364789460658034 9.396169613958463 0 0 0
346 1 14.244782217763124 11.004770335450926 11.01506369327529 0 0 0
347 1 15.729713917126137 9.427776700166238 9.423248801649862 0 0 0
348 1 17.31094318506782 11.004770343590529 11.004448587777382 0 0 0
349 1 18.86915691035823 9.430660960708975 9.430190488535771 0 0 0
350 1 20.439638798578823 11.004770344759574 11.004478716793436 0 0 0
351 1 22.009029064129837 12.577904299966677 9.431737011088982 -1 0 0
352 1 1.5700469061839248 14.150031785593622 11.004880078617772 0 0 0
353 1 3.1401079541407624 12.578878307933056 9.431216793975684 0 0 0
354 1 4.713686096987461 14.149274000127912 11.005160136900326 0 0 0
355 1 6.283750279422106 12.583722315374276 9.426669530221194 0 0 0
356 1 7.860548651069378 14.148068242151147 10.999331699286289 0 0 0
357 1 9.437087448153472 12.570935445016286 9.438098272659813 0 0 0
358 1 11.004102661934184 14.194600993025848 11.005262853442497 0 0 0
359 1 12.610591223648308 12.644751316001365 9.39616956403271 0 0 0
360 1 14.14599312960996 14.147540695468335 11.009754017328097 0 0 0
361 1 15.729713915905144 12.581763990390023 9.42324880081604 0 0 0
362 1 17.29328663419503 14.149210526976148 11.004235270457539 0 0 0
363 1 18.869156909422216 12.578879727774043 9.430190488574425 0 0 0
364 1 20.437005865447134 14.15004760638808 11.0045022863785 0 0 0
365 1 22.008619262779685 15.72204742957725 9.432360547751028 -1 0 0
366 1 1.570648952430938 17.293906657900887 11.00484687882363 0 0 0
367 1 3.142671250903191 15.7219430985757 9.432679559937446 0 0 0
368 1 4.714523595306804 17.293781431050245 11.005003932184922 0 0 0
369 1 6.286375078389165 15.722624359646957 9.432222484310039 0 0 0
370 1 7.858079875386715 17.295651364600054 11.00349113140762 0 0 0
371 1 9.429684962620968 15.722131808612906 9.430834037471781 0 0 0
372 1 11.003612810111719 17.304219555331784 11.004750081204568 0 0 0
373 1 12.579608374822854 15.739864018596267 9.428620640297815 0 0 0
374 1 14.149120083016532 17.29561631555751 11.005892813860278 0 0 0
375 1 15.719992191590405 15.721478374570426 9.432503956333269 0 0 0
376 1 17.292590765454854 17.293759442475 11.004376160378804 0 0 0
377 1 18.86494173609813 15.722040337164334 9.432159199014972 0 0 0
378 1 20.436429945174577 17.293921102274414 11.004583110117093 0 0 0
379 1 22.008498614970346 18.865844945354024 9.43258214359401 -1 0 0
380 1 1.5707816129932786 20.437697900795797 11.004819271836872 0 0 0
381 1 3.1428189370868966 18.86575691862586 9.432699207871735 0 0 0
382 1 4.714701654924725 20.437691777034626 11.004847416796517 0 0 0
383 1 6.286464142046162 18.866182019128722 9.43222236900268 0 0 0
384 1 7.858571059620724 20.43832036569944 11.004541648706391 0 0 0
385 1 9.430693985754171 18.867254090393516 9.431769586361165 0 0 0
386 1 11.00364495467469 20.439779901941563 11.004702538135291 0 0 0
387 1 12.577137656184364 18.870255450503635 9.431163304070592 0 0 0
388 1 14.14871585063377 20.438358738589326 11.004862056460953 0 0 0
389 1 15.720704098075453 18.866020821174423 9.432301525701176 0 0 0
390 1 17.292499003580634 20.437676410305386 11.004635436851405 0 0 0
391 1 18.86461145698243 18.865826470965956 9.432404166100982 0 0 0
392 1 20.43638017485575 20.437677404279338 11.004715204522608 0 0 0
393 1 22.008233941024614 22.0095438447487 12.576910389904446 -1 -1 0
394 1 1.5705369484799157 1.5718196278147594 14.149124488461261 0 0 0
395 1 3.1426613564193686 22.009543845205595 12.577008967100651 0 -1 0
396 1 4.714449336242143 1.571781650620876 14.1493394974106 0 0 0
397 1 6.286572417452386 22.009543845514127 12.57714267754803 0 -1 0
398 1 7.858143761885173 1.5709662316783992 14.150223034308837 0 0 0
399 1 9.43083906919869 22.009543844715655 12.577557402751482 0 -1 0
400 1 11.003799506826216 1.5711972788885762 14.149835250336228 0 0 0
401 1 12.576266613523327 22.009543841838756 12.577371073680744 0 -1 0
402 1 14.148420713724839 1.5716435786894805 14.149542212730672 0 0 0
403 1 15.720564181033584 22.009543842371137 12.577115208225143 0 -1 0
404 1 17.2923920931206 1.571811992037327 14.149192483630321 0 0 0
405 1 18.864300016820092 22.009543843055937 12.57685473782053 0 -1 0
406 1 20.436170426322676 1.571859031585894 14.149010760663694 0 0 0
407 1 22.008175846707836 3.143706968559303 12.57691669898734 -1 0 0
408 1 1.570229472150908 4.715491949189023 14.149322598837506 0 0 0
409 1 3.14251090155678 3.1436785558832 12.5770613448172 0 0 0
410 1 4.71394790482399 4.715368470981659 14.149543135804212 0 0 0
411 1 6.286468387653577 3.1434865298832277 12.577086455532514 0 0 0
412 1 7.856249162923003 4.712608454766733 14.151987079750917 0 0 0
413 1 9.430086707497995 3.139261576774248 12.578262569640696 0 0 0
414 1 11.004740763417228 4.713826788048914 14.150293937153629 0 0 0
415 1 12.576586900846946 3.1421373064554676 12.577662544591902 0 0 0
416 1 14.148601509598109 4.715330747585199 14.149732556424516 0 0 0
417 1 15.72075733676704 3.143298188696986 12.577207005148365 0 0 0
418 1 17.292450825107267 4.715461515883918 14.149172580867294 0 0 0
419 1 18.864335533521352 3.143779782204158 12.576777202395387 0 0 0
420 1 20.436093375790275 4.715582047967107 14.149105779436681 0 0 0
421 1 22.008000940406177 6.287461461955002 12.577072682070662 -1 0 0
422 1 1.5687586406532499 7.859023985190928 14.150481550756739 0 0 0
423 1 3.142067211312171 6.287484606186188 12.577246582973702 0 0 0
424 1 4.710191970897553 7.857589113476578 14.15259588705329 0 0 0
425 1 6.286937800489404 6.2878532317695495 12.576934732083073 0 0 0
426 1 7.853322655516445 7.858828577477199 14.15471608956074 0 0 0
427 1 9.427482858592624 6.269699933453955 12.5808231101552 0 0 0
428 1 11.008580354089842 7.861931238047392 14.147327139372115 0 0 0
429 1 12.577850949423494 6.286639535350187 12.579077308380995 0 0 0
430 1 14.146043764409036 7.861877427206267 14.147239765674158 0 0 0
431 1 15.720693394386496 6.287025470133014 12.577103161761343 0 0 0
432 1 17.29362051654998 7.858478413339953 14.150490610587022 0 0 0
433 1 18.864469441887973 6.287545071341223 12.576707261162841 0 0 0
434 1 20.436389244859672 7.859219430033092 14.14991181051149 0 0 0
435 1 22.007577047322826 9.431640448270743 12.57765751089962 -1 0 0
436 1 1.5679905476748464 11.004770345552426 14.150371605851504 0 0 0
437 1 3.137706327138079 9.430611874048894 12.579263578125335 0 0 0
438 1 4.707539353195371 11.004770345254787 14.15253627529718 0 0 0
439 1 6.276425560853071 9.427323682703301 12.586609630657959 0 0 0
440 1 7.840999989649679 11.004770349244888 14.166639561945006 0 0 0
441 1 9.395091077211255 9.364821247114646 12.611903918702312 0 0 0