LAMMPS data file via write_data, version 2 Aug 2023, timestep = 27, units = metal

691 atoms
3 atom types

0 22.009546999999998 xlo xhi
0 22.009546999999998 ylo yhi
0 22.009546999999998 zlo zhi

Masses

1 183.84
2 1.008
3 4.0026

Atoms # atomic

1 1 9.881656016839924e-05 4.9212613182869933e-05 22.007266687076296 0 0 -1
2 1 1.5714832928027427 1.5716934649493057 1.5696508246568084 0 0 0
3 1 3.143197429922587 0.00033914424988267536 22.00726723083672 0 0 -1
4 1 4.715006783368869 1.5719140266441292 1.5694771041324493 0 0 0
5 1 6.287304763951676 0.0008957875267800678 22.007267748707843 0 0 -1
6 1 7.8596452579823515 1.5722937892673399 1.5693379824722586 0 0 0
7 1 9.432254910078955 0.0013072945092429513 22.007267889839273 0 0 -1
8 1 11.004871448762378 1.57249392475152 1.5692691334299573 0 0 0
9 1 12.577506716270987 0.0013103589809063468 22.00726765082992 0 0 -1
10 1 14.15011256540506 1.572296724244878 1.5693293582453918 0 0 0
11 1 15.722468647367457 0.0008925377398573148 22.00726704457374 0 0 -1
12 1 17.29474151447065 1.5719189091274013 1.5694770880291615 0 0 0
13 1 18.866555328358576 0.00033015190259295404 22.007266596961 0 0 -1
14 1 20.438243446855274 1.5716944913758035 1.5696499868174123 0 0 0
15 1 7.693372719885894e-05 3.143581731639158 22.00726676036658 0 0 -1
16 1 1.5712180685582897 4.715564378341923 1.5694138546512464 0 0 0
17 1 3.1428421613237334 3.143395814837359 22.007267305487606 0 0 -1
18 1 4.714085430303274 4.714901887821243 1.5688846945771213 0 0 0
19 1 6.28690973154812 3.1433589112797424 22.007267794953954 0 0 -1
20 1 7.858873507052245 4.714689773212418 1.5685661160565096 0 0 0
21 1 9.432107421926238 3.1435540471303454 22.007267950511913 0 0 -1
22 1 11.004841378498211 4.714852508237393 1.5684985306826829 0 0 0
23 1 12.57763060249465 3.1435505740629592 22.00726773204794 0 0 -1
24 1 14.150802728212351 4.714693056277174 1.5685692545282723 0 0 0
25 1 15.72282693918019 3.1433686410818433 22.007267124462146 0 0 -1
26 1 17.295572427844547 4.7149197198667325 1.5688878549284828 0 0 0
27 1 18.86686646745613 3.143409418511261 22.007266678553677 0 0 -1
28 1 20.43843093007945 4.715571530760721 1.5694159994478734 0 0 0
29 1 2.7568409298587154e-05 6.288039651229326 22.00726727435772 0 0 -1
30 1 1.5711153717923707 7.860414030006073 1.5693983624457284 0 0 0
31 1 3.1424100824758656 6.28767392707654 22.007267621408268 0 0 -1
32 1 4.713593980082063 7.859785952488564 1.5685932361203003 0 0 0
33 1 6.285744619935638 6.286741577506418 22.00726803811407 0 0 -1
34 1 7.85753425924537 7.858624576793765 1.5667989254796004 0 0 0
35 1 9.431432799985885 6.286533332209341 22.00726816478677 0 0 -1
36 1 11.004775673093334 7.858535912048258 1.5659798096873159 0 0 0
37 1 12.578194892540543 6.286528893565541 22.007267978966546 0 0 -1
38 1 14.152008867565591 7.8586327578944095 1.566801860290666 0 0 0
39 1 15.723864149306655 6.2867548169865515 22.00726760693512 0 0 -1
40 1 17.29594850435294 7.859795502862504 1.5685947565197753 0 0 0
41 1 18.867195116670537 6.287687536984521 22.007267269151917 0 0 -1
42 1 20.438433501308932 7.8604194817475435 1.569396543781522 0 0 0
43 1 22.009536499525925 9.43295323472662 22.007267773441896 -1 0 -1
44 1 1.571141395685183 11.00542933669491 1.569478262738112 0 0 0
45 1 3.142336988248575 9.432848516669454 22.007267929638562 0 0 -1
46 1 4.713674421370087 11.005564849035906 1.5686817918769065 0 0 0
47 1 6.28539480801813 9.4324194523311 22.007268303139682 0 0 -1
48 1 7.8573707526683725 11.005835315105944 1.5661957433563614 0 0 0
49 1 9.430762467933572 9.431972716048898 22.007268496213907 0 0 -1
50 1 11.004735842901832 11.00595189594522 1.5633501950344046 0 0 0
51 1 12.578734530079773 9.431971737282693 22.007268342868965 0 0 -1
52 1 14.152100618707312 11.005833104603932 1.5661917882482697 0 0 0
53 1 15.724105216399977 9.432420505568977 22.007268081600664 0 0 -1
54 1 17.295808990237543 11.005557989538413 1.5686785378899266 0 0 0
55 1 18.867183206740197 9.432854222613754 22.00726787576573 0 0 -1
56 1 20.43836167348054 11.005428630474313 1.5694768337697027 0 0 0
57 1 22.00953468758011 12.57779249796736 22.007267885547808 -1 0 -1
58 1 1.5711912766678602 14.150192723950548 1.5696302255247725 0 0 0
59 1 3.1423883810911946 12.578050036638572 22.007268024640325 0 0 -1
60 1 4.713705642280492 14.151150439131866 1.5688786524078828 0 0 0
61 1 6.285386155355247 12.578913231456731 22.00726837819307 0 0 -1
62 1 7.857489120844116 14.153004832271893 1.5667675143383493 0 0 0
63 1 9.430752061339204 12.579820741110556 22.007268566193584 0 0 -1
64 1 11.004755649031818 14.153382446287555 1.565908330363026 0 0 0
65 1 12.57872084566611 12.57982052841204 22.007268448510995 0 0 -1
66 1 14.152026495334807 14.152999209477695 1.5667619371426664 0 0 0
67 1 15.724092945673583 12.57889908164138 22.007268221734662 0 0 -1
68 1 17.295815344020973 14.15112981925911 1.5688744498375211 0 0 0
69 1 18.867120634574537 12.578032596670875 22.00726802418273 0 0 -1
70 1 20.438349060330093 14.150179367737945 1.5696272778755374 0 0 0
71 1 2.320310337636939e-05 15.722263015063774 22.007267655310866 0 0 -1
72 1 1.571311540801763 17.294441997636948 1.5697809848498394 0 0 0
73 1 3.142501383153402 15.722846444436803 22.007267818434418 0 0 -1
74 1 4.714022140495695 17.29589466838278 1.5690476619922191 0 0 0
75 1 6.285671317753583 15.724528635721958 22.007268183460237 0 0 -1
76 1 7.858750196609271 17.29708781362258 1.5684478422573176 0 0 0
77 1 9.431385532326336 15.725349158674055 22.007268331983127 0 0 -1
78 1 11.00481626205747 17.297422493143397 1.5682264015077718 0 0 0
79 1 12.57818129187944 15.72534944822747 22.007268198912975 0 0 -1
80 1 14.150879627880977 17.297083387234014 1.5684475092766412 0 0 0
81 1 15.723896398977013 15.724509140327712 22.007267963084093 0 0 -1
82 1 17.295607561470895 17.29586887895295 1.5690458405855479 0 0 0
83 1 18.867086259770407 15.722815985997645 22.007267727645477 0 0 -1
84 1 20.43832766736799 17.294425760954162 1.5697748887636567 0 0 0
85 1 7.519134939799568e-05 18.866173960411828 22.007267111554576 0 0 -1
86 1 1.5714722125050822 20.4380801560926 1.5697861960911688 0 0 0
87 1 3.142805104732057 18.866881416778284 22.007267470879796 0 0 -1
88 1 4.71492090258329 20.438891692938103 1.5695062253868841 0 0 0
89 1 6.2867878867205516 18.867938279501367 22.00726789295651 0 0 -1
90 1 7.859556449300719 20.439643346586564 1.5692704971482379 0 0 0
91 1 9.432020539074996 18.868554297673793 22.00726802365383 0 0 -1
92 1 11.004865832523311 20.439935095724422 1.5691736809951096 0 0 0
93 1 12.577674757028678 18.86855606158042 22.00726783070674 0 0 -1
94 1 14.150179803305958 20.43964542794869 1.5692633539155063 0 0 0
95 1 15.722906556883956 18.867921490898535 22.007267441979398 0 0 -1
96 1 17.294808457980917 20.438873559969057 1.569501686468663 0 0 0
97 1 18.866891213683783 18.86685701199804 22.0072671035624 0 0 -1
98 1 20.438252209296966 20.438070433745796 1.5697845275378801 0 0 0
99 1 8.285358404216699e-05 22.009473146287352 3.141953822345116 0 -1 0
100 1 1.5715046473569065 1.5715523216291505 4.7138179702598775 0 0 0
101 1 3.1431239518461958 0.00032288895623567237 3.1416626199943654 0 0 0
102 1 4.714870216986907 1.5719058905762697 4.713298770488485 0 0 0
103 1 6.287209298012945 0.0010446470438498666 3.1412692660588544 0 0 0
104 1 7.859551501801005 1.5725031746471299 4.712918821813998 0 0 0
105 1 9.432217819690674 0.0015936465885525977 3.141027894869099 0 0 0
106 1 11.00483746302287 1.5728893955309393 4.7127474921358194 0 0 0
107 1 12.577507012101053 0.0015996071057956538 3.1410164619311076 0 0 0
108 1 14.150124217709411 1.5725078663895218 4.712901957260506 0 0 0
109 1 15.722517220423232 0.0010453844493499476 3.141258791037952 0 0 0
110 1 17.29480097459189 1.5719031688847853 4.713294694387503 0 0 0
111 1 18.866589458153715 0.00031319392830411296 3.1416578294268103 0 0 0
112 1 20.43817093419278 1.5715466915950858 4.713814490455486 0 0 0
113 1 6.325241538553467e-05 3.1433759978213174 3.1414663463873524 0 0 0
114 1 1.570978607712113 4.715118211031498 4.712971187859807 0 0 0
115 1 3.1427004467642483 3.1432126126943767 3.141113921733837 0 0 0
116 1 4.713319010208971 4.714114939784381 4.711597788678938 0 0 0
117 1 6.2867644235199025 3.143213501463672 3.1407146181362515 0 0 0
118 1 7.85839088191836 4.713959771172971 4.710898061083794 0 0 0
119 1 9.432069963034076 3.1435580295918606 3.140499928873245 0 0 0
120 1 11.004811137345834 4.714612643886712 4.710810570389648 0 0 0
121 1 12.577626309197322 3.1435580341643745 3.140493418721512 0 0 0
122 1 14.151217694660415 4.71396756424096 4.710908441060192 0 0 0
123 1 15.722927666404901 3.1432218937952388 3.140715237202764 0 0 0
124 1 17.296276736793104 4.714121585708587 4.711606381934366 0 0 0
125 1 18.866977006002987 3.1432185408230486 3.141117983244592 0 0 0
126 1 20.4386181900575 4.71511907765256 4.712972129317356 0 0 0
127 1 1.4824771108532452e-05 6.287935356917952 3.1412519712140106 0 0 0
128 1 1.570922076848098 7.8603354305947715 4.712959200508856 0 0 0
129 1 3.1421059181589177 6.2874533005035405 3.1405702612730253 0 0 0
130 1 4.712615703516846 7.859190429135418 4.710647644091528 0 0 0
131 1 6.284926173113005 6.285917198732932 3.1384391333574952 0 0 0
132 1 7.854875798828644 7.855932393493654 4.704375674246217 0 0 0
133 1 9.430995934204013 6.285786610578731 3.1374583792460022 0 0 0
134 1 11.004759581367825 7.8561085907522346 4.701327556021703 0 0 0
135 1 12.578601763975428 6.285792290325664 3.137464531273914 0 0 0
136 1 14.154624704711315 7.85594536996978 4.70439178330919 0 0 0
137 1 15.724652520012135 6.285929390978094 3.138447155020131 0 0 0
138 1 17.29688122374057 7.859191441658035 4.710646510478151 0 0 0
139 1 18.867467822503322 6.287461020937639 3.1405738789010362 0 0 0
140 1 20.438572021037032 7.860334027485278 4.7129562972153645 0 0 0
141 1 22.009520411763834 9.432978487431567 3.1413449233421624 -1 0 0
142 1 1.5711328125803086 11.005458786214108 4.713234496094709 0 0 0
143 1 3.142215333175212 9.43286501216051 3.1407029043467225 0 0 0
144 1 4.713472401138363 11.005616531720856 4.711233586056209 0 0 0
145 1 6.28475992859078 9.432057632353128 3.137670338342218 0 0 0
146 1 7.855544450433541 11.005819582896436 4.70240920890603 0 0 0
147 1 9.429813838705991 9.430990516396797 3.131086396290715 0 0 0
148 1 11.00472562653123 11.006375156082267 4.687715097363456 0 0 0
149 1 12.579673526144347 9.43099814367596 3.1310936386591126 0 0 0
150 1 14.153904679072141 11.005820114801537 4.702413573372648 0 0 0
151 1 15.72472472327306 9.43205982400108 3.1376668507990666 0 0 0
152 1 17.295976877463996 11.005616774079112 4.71122112648525 0 0 0
153 1 18.86727430544679 9.432864916248487 3.1406976715212545 0 0 0
154 1 20.438310539158255 11.005460721921343 4.713232856361639 0 0 0
155 1 22.009519598476135 12.577786176114982 3.1415737152480583 -1 0 0
156 1 1.5712431736980947 14.150070328773982 4.713685043820919 0 0 0
157 1 3.142370239095503 12.578061547815395 3.140960461116415 0 0 0
158 1 4.713537310109645 14.151222087005134 4.71203095747891 0 0 0
159 1 6.284864431880564 12.579231847429272 3.1380540201751783 0 0 0
160 1 7.855013771017681 14.156097568402288 4.704058212433386 0 0 0
161 1 9.429784344170843 12.581002250125907 3.131055348127274 0 0 0
162 1 11.004752187556146 14.15634973363313 4.7011100976231335 0 0 0
163 1 12.579697001742813 12.581001893891129 3.1310562409834852 0 0 0
164 1 14.154479900680528 14.156089686673178 4.704062522923664 0 0 0
165 1 15.724613634135627 12.579226230071766 3.138046350476703 0 0 0
166 1 17.2959531462426 14.15122131568259 4.7120233078504885 0 0 0
167 1 18.86711298702864 12.578057072094927 3.1409546970207893 0 0 0
168 1 20.43824220986831 14.150074409487777 4.7136843304409455 0 0 0
169 1 1.1553405331787405e-05 15.722185486255148 3.141883694169614 0 0 0
170 1 1.57134655467473 17.29417225436895 4.714139115013491 0 0 0
171 1 3.1424620006544037 15.722803888931155 3.141395167544728 0 0 0
172 1 4.713428372867563 17.29649692742482 4.712161237607487 0 0 0
173 1 6.28489876486244 15.725410589718209 3.1385724211786217 0 0 0
174 1 7.858080856814846 17.298648685067693 4.710235306516766 0 0 0
175 1 9.431039746116808 15.726485779671563 3.1369989078295384 0 0 0
176 1 11.004818101090246 17.29918292205661 4.709597839224896 0 0 0
177 1 12.578532554315531 15.726480906081749 3.1370026541746454 0 0 0
178 1 14.151519639282862 17.298635440934717 4.710256297565793 0 0 0
179 1 15.724663152839632 15.7254030991759 3.138569742090776 0 0 0
180 1 17.29615072830903 17.296491138275695 4.712168904269434 0 0 0
181 1 18.867097250276984 15.722792479196212 3.141388958928019 0 0 0
182 1 20.438234904604936 17.294170612589927 4.714134445960262 0 0 0
183 1 5.880166461863202e-05 18.86607294981377 3.142042728950349 0 0 0
184 1 1.571548434023269 20.437807816492402 4.714177922646289 0 0 0
185 1 3.1426956041587286 18.866921283929344 3.1415174904737118 0 0 0
186 1 4.714724042033839 20.439131312129458 4.71334792540029 0 0 0
187 1 6.286544791010601 18.868360521664172 3.1406132030629 0 0 0
188 1 7.859368336659662 20.44034671501145 4.712644019419089 0 0 0
189 1 9.431928362065321 18.869149656441593 3.1400856655298637 0 0 0
190 1 11.00484685633961 20.440817142662286 4.712403911016369 0 0 0
191 1 12.577755976731368 18.869152278666522 3.1400847385185044 0 0 0
192 1 14.150304674631158 20.440345197785792 4.712643123387024 0 0 0
193 1 15.723119873796646 18.86835037092758 3.14061342417987 0 0 0
194 1 17.294930081863914 20.439118494902303 4.7133485693887955 0 0 0
195 1 18.866962734943225 18.866903013244187 3.1415138178093853 0 0 0
196 1 20.43811182361363 20.437797666318176 4.714171591877206 0 0 0
197 1 4.9983366212482653e-05 22.009275706911282 6.286296770229564 0 -1 0
198 1 1.571586802474911 1.5714941660934194 7.85819133071115 0 0 0
199 1 3.143263917568853 0.00011099783228817318 6.28604449993663 0 0 0
200 1 4.715025924089463 1.5718729948602537 7.857844895821963 0 0 0
201 1 6.287034990639087 0.0014972323009397241 6.285294361896525 0 0 0
202 1 7.859504602973494 1.573141741722861 7.857360655069897 0 0 0
203 1 9.432144417831804 0.0024633583517376105 6.284932807780415 0 0 0
204 1 11.004801184208102 1.5739053631240136 7.857208601504511 0 0 0
205 1 12.57750388955899 0.0024632478122498993 6.284924633327884 0 0 0
206 1 14.150085738693003 1.5731366580525807 7.857353238689971 0 0 0
207 1 15.722596700756872 0.0014918464044439582 6.2852904783253 0 0 0
208 1 17.29456872034605 1.5718599899365924 7.857834938724034 0 0 0
209 1 18.8663743809212 9.931393278472774e-05 6.286034189990177 0 0 0
210 1 20.438022885271117 1.5714890581775098 7.858180789368638 0 0 0
211 1 3.368990569906175e-05 3.1432569946948274 6.285750851618637 0 0 0
212 1 1.5710596081905823 4.715044290637454 7.857584569744198 0 0 0
213 1 3.1427648822503635 3.1430956786099613 6.285381477958624 0 0 0
214 1 4.713559980710851 4.714026980612447 7.856594178045946 0 0 0
215 1 6.286623019243812 3.143059712565056 6.284668462451569 0 0 0
216 1 7.858582876321579 4.713615174681796 7.85593515464021 0 0 0
217 1 9.43202335947363 3.143764342398953 6.284252580098261 0 0 0
218 1 11.004768289702069 4.714961648660111 7.855518346499576 0 0 0
219 1 12.577587094857877 3.1437686699392993 6.28425017129288 0 0 0
220 1 14.150943680838678 4.713618926111945 7.855951819880683 0 0 0
221 1 15.722975406447311 3.143058698819149 6.28467013306281 0 0 0
222 1 17.295963909319948 4.714012533739422 7.856599308798215 0 0 0
223 1 18.86684083660492 3.1430890229384314 6.285378018288939 0 0 0
224 1 20.43846982668042 4.715036160424075 7.857580202729717 0 0 0
225 1 22.0095274784741 6.287365441823693 6.284964824647299 -1 0 0
226 1 1.570095698860841 7.8594742039248535 7.856826254154505 0 0 0
227 1 3.141012490449812 6.286425234893911 6.28380457526907 0 0 0
228 1 4.709083161104603 7.8564715093218895 7.853341736601643 0 0 0
229 1 6.282202939432674 6.283181358563171 6.279780871740716 0 0 0
230 1 7.845103022400573 7.847266569337459 7.843041275631065 0 0 0
231 1 9.429567568367185 6.284047136889612 6.278753665025835 0 0 0
232 1 11.0047065150454 7.850008880168671 7.836000551099112 0 0 0
233 1 12.579961409440552 6.284060440800663 6.278771092651313 0 0 0
234 1 14.16433085112066 7.847278892326956 7.843070809366516 0 0 0
235 1 15.72730617959527 6.283187118007542 6.279798065643925 0 0 0
236 1 17.300350370236107 7.856457687959896 7.853344262631976 0 0 0
237 1 18.86849532145552 6.286417846305876 6.283802941499826 0 0 0
238 1 20.439326963849876 7.859467763168476 7.856821769511769 0 0 0
239 1 22.00948126868152 9.432994883564998 6.285344981227172 -1 0 0
240 1 1.571243542005061 11.005408330241364 7.857576187515287 0 0 0
241 1 3.1419177963305476 9.43283874736714 6.284413151019454 0 0 0
242 1 4.713946340959942 11.0056339844152 7.855894749843721 0 0 0
243 1 6.283029178716309 9.430869690297573 6.278568993357427 0 0 0
244 1 7.854528768920586 11.003976405344243 7.840248209980323 0 0 0
245 1 9.425806276130647 9.426223578993511 6.256249195057936 0 0 0
246 1 11.004669646106342 11.008891974483644 7.768620328382265 0 0 0
247 1 12.583625091655549 9.426234505164137 6.256264720846036 0 0 0
248 1 14.154863799655221 11.003963530242215 7.840254216929343 0 0 0
249 1 15.726404928457027 9.430866724417383 6.278577936632947 0 0 0
250 1 17.295443975528013 11.00562293365357 7.8558830135917725 0 0 0
251 1 18.86750745174801 9.43283213232815 6.284401538424885 0 0 0
252 1 20.438121834589168 11.005412147108753 7.857568952078507 0 0 0
253 1 22.009477840035213 12.577713179822647 6.285762246987703 -1 0 0
254 1 1.5718195128568022 14.149578695931242 7.858193447372704 0 0 0
255 1 3.14269538498717 12.577921401926234 6.284882895151568 0 0 0
256 1 4.715418052826582 14.149369896747874 7.858019589086373 0 0 0
257 1 6.284802540990075 12.579601842117892 6.280469831079651 0 0 0
258 1 7.848187632512303 14.167196128075755 7.841375877018835 0 0 0
259 1 9.42521428689434 12.586678321230774 6.256395509327348 0 0 0
260 1 11.004674968210637 14.164682594867378 7.835202572225799 0 0 0
261 1 12.584202869200535 12.586666894552685 6.256391981849294 0 0 0
262 1 14.161210058146835 14.167138820501718 7.841397432686838 0 0 0
263 1 15.724623212187101 12.579591777971704 6.2804721529202325 0 0 0
264 1 17.293998902688596 14.149367518374463 7.858018297155061 0 0 0
265 1 18.866723928538192 12.577931632858428 6.284869772473362 0 0 0
266 1 20.43758613532127 14.149597992495195 7.858191687205388 0 0 0
267 1 22.009519904922524 15.721769586521068 6.286377160610154 -1 0 0
268 1 1.5717689158031976 17.293519782153822 7.858668654579854 0 0 0
269 1 3.1428519565106345 15.722198815595346 6.285983654373734 0 0 0
270 1 4.714866004140746 17.29491738644554 7.857827646478527 0 0 0
271 1 6.282685449882806 15.728139406077764 6.280097596020394 0 0 0
272 1 7.856921481607873 17.30192879705098 7.85369728895624 0 0 0
273 1 9.430081958709428 15.730457545244683 6.276722540149254 0 0 0
274 1 11.004749687409259 17.303089380270315 7.853219882292127 0 0 0
275 1 12.579426765323483 15.730424594521727 6.2767422346867585 0 0 0
276 1 14.152578604058368 17.30186447429513 7.853739529720061 0 0 0
277 1 15.726812164531216 15.728114531282955 6.280127944500669 0 0 0
278 1 17.294626651386867 17.294906368014033 7.857853397269408 0 0 0
279 1 18.86664148931932 15.722215191084386 6.285981702976128 0 0 0
280 1 20.437741589754477 17.293534044047043 7.858670385333066 0 0 0
281 1 2.323215786520451e-05 18.86564252611003 6.286537089304197 0 0 0
282 1 1.5717255624426465 20.437471168438655 7.85850242242378 0 0 0
283 1 3.1431186782616503 18.86629956276349 6.286151196458716 0 0 0
284 1 4.7151351670490955 20.43861530877832 7.858057793747263 0 0 0
285 1 6.286030200846998 18.86939468935706 6.2842110041433745 0 0 0
286 1 7.858915480421894 20.441682777569838 7.856764652004609 0 0 0
287 1 9.43170109821231 18.87093836974519 6.283227673215015 0 0 0
288 1 11.004810849297781 20.442585560799632 7.85669542357782 0 0 0
289 1 12.577925419896768 18.870922907078775 6.283242759769159 0 0 0
290 1 14.150678963386127 20.44165804906623 7.856780270554364 0 0 0
291 1 15.723555623456749 18.869372763019683 6.284240925928651 0 0 0
292 1 17.294446691729654 20.438607438354424 7.8580667558526285 0 0 0
293 1 18.86646625477229 18.866298897876742 6.286152929754749 0 0 0
294 1 20.437873221025608 20.43747243113675 7.858497505257551 0 0 0
295 1 2.7184520134799224e-05 22.00916565704596 9.43046838801594 0 -1 0
296 1 1.5716255756220232 1.5714895219720435 11.00249366700826 0 0 0
297 1 3.1434563743947934 22.009519362541358 9.430386435607254 0 -1 0
298 1 4.715131919005343 1.571919775797996 11.002494108129778 0 0 0
299 1 6.287290057645801 0.0013556305070387563 9.430134914969823 0 0 0
300 1 7.859630365249263 1.573354645738012 11.002494415901129 0 0 0
301 1 9.431920493468478 0.003887216295120787 9.429649954609316 0 0 0
302 1 11.004784787381979 1.574838587154599 11.002494298635066 0 0 0
303 1 12.577673374877271 0.0038719089997912943 9.429650920100782 0 0 0
304 1 14.14993275333457 1.5733381259006691 11.002493859528478 0 0 0
305 1 15.72228742163979 0.0013418122709496693 9.430133912343798 0 0 0
306 1 17.294436852919645 1.5719051012304077 11.002493473669007 0 0 0
307 1 18.86613765197287 22.009522133799628 9.430379081188025 0 -1 0
308 1 20.437952821447652 1.571488351159507 11.002493397493604 0 0 0
309 1 2.0973098894665153e-06 3.143269590693422 9.430244674104822 0 0 0
310 1 1.5711266679953826 4.715078978686855 11.002493855638143 0 0 0
311 1 3.1429480491455575 3.143204955530665 9.430119313300104 0 0 0
312 1 4.713855280784896 4.71430250318741 11.002494253401805 0 0 0
313 1 6.286772079646129 3.1432389112352843 9.42982486527406 0 0 0
314 1 7.858832431446007 4.713994295744865 11.002494553461498 0 0 0
315 1 9.43210370735544 3.1447285717990643 9.429548287520603 0 0 0
316 1 11.004739579872524 4.715315127944235 11.002494508447969 0 0 0
317 1 12.577439959295848 3.1447255429189798 9.429551292670979 0 0 0
318 1 14.150654185435233 4.713989399108634 11.002494116825973 0 0 0
319 1 15.72276776061455 3.1432202274955245 9.429825463898744 0 0 0
320 1 17.29563945688608 4.7142771180379555 11.002493873027658 0 0 0
321 1 18.866604104533806 3.1431878938301194 9.430112308166688 0 0 0
322 1 20.438368676516934 4.715066916420772 11.002493689805135 0 0 0
323 1 22.009498357247782 6.287267948094614 9.42991928272259 -1 0 0
324 1 1.5702024830390204 7.859417092393015 11.002494218321704 0 0 0
325 1 3.141344458186123 6.286436207785175 9.42949331546122 0 0 0
326 1 4.709966184876129 7.8568470443399745 11.002494463161822 0 0 0
327 1 6.283025680431969 6.283243520212108 9.427775786937879 0 0 0
328 1 7.847739130169651 7.8472364513992865 11.002494734832915 0 0 0
329 1 9.431328304490561 6.285522885850577 9.42834347380057 0 0 0
330 1 11.00469637369988 7.843358468394412 11.002494656881723 0 0 0
331 1 12.578111924047043 6.285523022850904 9.42835389145268 0 0 0
332 1 14.161656975827198 7.8472422949761 11.002494456550291 0 0 0
333 1 15.726425115265156 6.283235107869891 9.427785515781522 0 0 0
334 1 17.2994489784959 7.856821575158313 11.00249430593547 0 0 0
335 1 18.868109200365804 6.286415016670953 9.429491869885423 0 0 0
336 1 20.439188699347692 7.8594059619071635 11.002494199586367 0 0 0
337 1 22.009451467044965 9.43242134824228 9.429759794667115 -1 0 0
338 1 1.5701077134411954 11.005171617758593 11.00249451802997 0 0 0
339 1 3.1392504476061593 9.431075420184523 9.428632768823249 0 0 0
340 1 4.70538984810345 11.00286494921787 11.002494641504875 0 0 0
341 1 6.272489927739908 9.42355298152016 9.42140468634818 0 0 0
342 1 7.810788763500614 10.990806933974653 11.002494676332336 0 0 0
343 1 9.392756733553215 9.382317388990883 9.35297604812756 0 0 0
344 1 20.43825200476448 20.438070285982356 20.435202014063606 0 0 0
345 1 12.616604805511825 9.382321262671363 9.352971610741104 0 0 0
346 1 14.198510897649586 10.990784379710227 11.00249456709792 0 0 0
347 1 15.736900289761788 9.423547102664978 9.421413428748057 0 0 0
348 1 17.30397199582186 11.00285189164697 11.002494558665518 0 0 0
349 1 18.870125771549866 9.43106359200079 9.428627295309523 0 0 0
350 1 20.439223140310027 11.00517665108129 11.002494530077627 0 0 0
351 1 22.0094436557991 12.577545132587174 9.430020374407295 -1 0 0
352 1 1.572530784495159 14.148793986722973 11.00249445329705 0 0 0
353 1 3.1441517682023257 12.577316228152702 9.429416967129846 0 0 0
354 1 4.718318925314549 14.146729558358823 11.002494552883718 0 0 0
355 1 6.295407101902345 12.57259197037268 9.430508151626576 0 0 0
356 1 7.857990065968114 14.153669806723997 11.002494574246258 0 0 0
357 1 9.380801453174598 12.627685183912725 9.354461771216592 0 0 0
358 1 11.004645560331731 14.2451443674047 11.002494391133938 0 0 0
359 1 12.628494446344066 12.627647524471096 9.354452322799112 0 0 0
360 1 14.151326648898875 14.153562204161458 11.002494478258443 0 0 0
361 1 15.71396179752016 12.572548244667468 9.430506853877763 0 0 0
362 1 17.291057044435153 14.146707737193664 11.002494492142718 0 0 0
363 1 18.865206543443204 12.577325662136301 9.429413641850077 0 0 0
364 1 20.436830353045604 14.14881246480129 11.0024944562841 0 0 0
365 1 22.00948672461014 15.721108943976267 9.430697210098064 -1 0 0
366 1 1.5719658245520964 17.293233559567753 11.002494049780918 0 0 0
367 1 3.1442376844663196 15.721207457531417 9.430761063088786 0 0 0
368 1 4.715786663135127 17.29406889103425 11.002494285573992 0 0 0
369 1 6.286969461947949 15.723894626590095 9.429613011422484 0 0 0
370 1 7.859526539597487 17.29900785497209 11.002494469760121 0 0 0
371 1 9.428370796680268 15.738848868694872 9.420832632610303 0 0 0
372 1 11.004703946787949 17.31968428699022 11.002494388221113 0 0 0
373 1 12.58098295162181 15.738774951531202 9.420849988123347 0 0 0
374 1 14.149891577670038 17.29889258955409 11.00249431265598 0 0 0
375 1 15.722429691633863 15.72381993759703 9.429626046636033 0 0 0
376 1 17.29366622908598 17.29405233371234 11.00249410197642 0 0 0
377 1 18.86518182541074 15.721225630302609 9.430767047618533 0 0 0
378 1 20.437513736664435 17.293256563237133 11.00249396812495 0 0 0
379 1 3.13892138793498e-07 18.865298966439017 9.43060448843162 0 0 0
380 1 1.571809772481836 20.437342293738574 11.002493724731023 0 0 0
381 1 3.1436524488799393 18.865739562045984 9.430520664137616 0 0 0
382 1 4.715383650217701 20.438386211568417 11.002494110008557 0 0 0
383 1 6.287002594671197 18.86812556936892 9.430019709433386 0 0 0
384 1 7.859374551931447 20.441258239838813 11.00249438546403 0 0 0
385 1 9.430573956468788 18.87450341250952 9.427810816001537 0 0 0
386 1 11.00478889383094 20.445921994974263 11.002494287267853 0 0 0
387 1 12.578952106785563 18.874454527892297 9.427831662569593 0 0 0
388 1 14.15018009621909 20.441213740526003 11.002493983559106 0 0 0
389 1 15.722507815327193 18.868075483042606 9.430044024145268 0 0 0
390 1 17.294176569360292 20.43838547650845 11.002493613795188 0 0 0
391 1 18.86587999191162 18.86575493740709 9.430528371624376 0 0 0
392 1 20.43776964344388 20.437354271195215 11.002493497182433 0 0 0
393 1 2.6992404084424482e-05 22.00916559144704 12.574518579388183 0 -1 0
394 1 1.5715864709268816 1.5714940744753887 14.146795950379985 0 0 0
395 1 3.1434561726519497 22.009519303957426 12.57460128249289 0 -1 0
396 1 4.715025595425668 1.5718729007580308 14.147143290201601 0 0 0
397 1 6.287289840644124 0.0013555640786120857 12.574853637145468 0 0 0
398 1 7.859504238496788 1.57314162396684 14.147628149196958 0 0 0
399 1 9.43192027500303 0.0038871503255116665 12.57533877103651 0 0 0
400 1 11.004800734363181 1.5739052592329756 14.147779950094156 0 0 0
401 1 12.57767314102994 0.0038718787186942287 12.57533724497545 0 0 0
402 1 14.150085247338644 1.573136534122246 14.147634441929943 0 0 0
403 1 15.722287211882003 0.0013417755261309792 12.57485335140618 0 0 0
404 1 17.294568278539874 1.5718598864831546 14.147151953606372 0 0 0
405 1 18.866137477700214 22.00952209781355 12.574607669034233 0 -1 0
406 1 20.43802250662309 1.571488972853976 14.146805946992835 0 0 0
407 1 1.9144020812225707e-06 3.1432695424399353 12.574742464506341 0 0 0
408 1 1.5710593109639883 4.715044240015639 14.147403078148194 0 0 0
409 1 3.1429478834523144 3.1432049206644788 12.57486854687999 0 0 0
410 1 4.713559713957246 4.71402696415842 14.148394272243246 0 0 0
411 1 6.286771881178406 3.1432388588243367 12.575163838646956 0 0 0
412 1 7.858582560000205 4.713615186077488 14.149053916997916 0 0 0
413 1 9.432103482389786 3.1447285320754625 12.57544063607509 0 0 0
414 1 11.004767861792981 4.714961659440877 14.149470550200835 0 0 0
415 1 12.577439738368225 3.144725494679964 12.575437069441318 0 0 0
416 1 14.150943243021532 4.713618896898548 14.149036371877873 0 0 0
417 1 15.722767522229596 3.143220151658428 12.575162082532366 0 0 0
418 1 17.295963530183386 4.714012482266102 14.148388276548623 0 0 0
419 1 18.866603909509973 3.1431878541567926 12.574874686706346 0 0 0
420 1 20.43846949494511 4.715036140158681 14.147407109522044 0 0 0
421 1 22.009498198164582 6.287267924687875 12.575068573950553 -1 0 0
422 1 1.5700955143552722 7.85947416696489 14.148162129826039 0 0 0
423 1 3.141344344496572 6.286436218784023 12.575495012713503 0 0 0
424 1 4.709083063958708 7.856471585534497 14.15164719519018 0 0 0
425 1 6.283025546849818 6.283243564893203 12.577213277706619 0 0 0
426 1 7.845102812279944 7.847266731135566 14.16194822410541 0 0 0
427 1 9.431328101843214 6.2855229929343 12.57664586779217 0 0 0
428 1 11.004706160389862 7.850008996195633 14.16898887190178 0 0 0
429 1 12.578111697369065 6.285523089089906 12.576635017725721 0 0 0
430 1 14.164330414200071 7.847279009548857 14.161918024560345 0 0 0
431 1 15.726424902870795 6.283235111808241 12.577202873582026 0 0 0
432 1 17.30035002580128 7.856457752708098 14.151644249034971 0 0 0
433 1 18.868109038487276 6.28641502711942 12.575496128152357 0 0 0
434 1 20.4393267284458 7.859467776886629 14.148166572054354 0 0 0
435 1 22.009451355425053 9.432421324500115 12.575228951278095 -1 0 0
436 1 1.5712434884478124 11.005408290074474 14.147412801970926 0 0 0
437 1 3.139250417644088 9.431075441849929 12.576356174486529 0 0 0
438 1 4.713946468356185 11.005634052366064 14.149094581426867 0 0 0
439 1 6.272489898522408 9.423553071134053 12.583584668092426 0 0 0
440 1 7.854528875244372 11.003976565739912 14.164741357938318 0 0 0