LAMMPS data file via write_data, version 2 Aug 2023, timestep = 31, units = metal

690 atoms
3 atom types

0 22.009546999999998 xlo xhi
0 22.009546999999998 ylo yhi
0 22.009546999999998 zlo zhi

Masses

1 183.84
2 1.008
3 4.0026

Atoms # atomic

1 1 0.0012952241266375088 22.009437621540894 22.009542857295987 0 -1 -1
2 1 1.5731951460745044 1.5719341916426075 1.5719902278804254 0 0 0
3 1 3.145121289095446 22.009430052848604 22.009542856729535 0 -1 -1
4 1 4.71722014762514 1.5717247100605123 1.5718000351949675 0 0 0
5 1 6.289608291306643 22.009473151695495 22.009542855832855 0 -1 -1
6 1 7.861948685800111 1.5717012964293675 1.5717790100277924 0 0 0
7 1 9.434370926923153 22.009538116076456 22.00954285625752 0 -1 -1
8 1 11.006737735212633 1.5718129299548804 1.571832094680709 0 0 0
9 1 12.579033429230478 2.083681290443451e-05 22.00954285741697 0 0 -1
10 1 14.151247850353572 1.5719528485714718 1.5719091012688757 0 0 0
11 1 15.723331084004432 1.9050326471869994e-07 22.009542858364465 0 0 -1
12 1 17.295301169504743 1.5720653922452539 1.5720258443265613 0 0 0
13 1 18.867156851041212 22.00949010138143 22.009542858367364 0 -1 -1
14 1 20.439032069734896 1.5720485958037176 1.5720577005870733 0 0 0
15 1 0.0012981068320940751 3.1440893634550835 22.00954285742735 0 0 -1
16 1 1.573221672117845 4.716059370358146 1.5720013160932005 0 0 0
17 1 3.1450945015357186 3.143807185781692 22.009542857006792 0 0 -1
18 1 4.7170435910301 4.715554106136175 1.571822421839194 0 0 0
19 1 6.289397875666136 3.1434732696158525 22.009542856958983 0 0 -1
20 1 7.861575042415247 4.715196188459369 1.5715527953947916 0 0 0
21 1 9.434280499767683 3.143545032838872 22.009542858362224 0 0 -1
22 1 11.006601972804985 4.715456523559839 1.5717395317183476 0 0 0
23 1 12.578981255534167 3.1437583142727226 22.00954285983689 0 0 -1
24 1 14.151193839116146 4.715826792022577 1.5719177382348721 0 0 0
25 1 15.723274162405605 3.144010264413131 22.009542859559563 0 0 -1
26 1 17.295238442535478 4.716215615678975 1.5720611509297946 0 0 0
27 1 18.86713132730848 3.144178479546788 22.00954285913301 0 0 -1
28 1 20.439060624919346 4.716272850388876 1.5720636782308512 0 0 0
29 1 0.0013492966452759959 6.288326203007062 22.00954285750321 0 0 -1
30 1 1.573318154172736 7.860324699493618 1.5720194861556254 0 0 0
31 1 3.1450395389155745 6.287944137622187 22.00954285689916 0 0 -1
32 1 4.716939302986121 7.859865280379451 1.5717228917027293 0 0 0
33 1 6.288931337523342 6.287272400617481 22.009542857044444 0 0 -1
34 1 7.860811532743562 7.8590636957244575 1.5709289294315265 0 0 0
35 1 9.433895910867243 6.287233711207114 22.009542858898314 0 0 -1
36 1 11.006261715709806 7.859379293236015 1.5709944972011003 0 0 0
37 1 12.578906551135702 6.2875746524861675 22.00954285998727 0 0 -1
38 1 14.151265555245164 7.8597556945799365 1.571614608663614 0 0 0
39 1 15.723294815431455 6.288014706230523 22.009542859684192 0 0 -1
40 1 17.295124138985535 7.86045794988371 1.5720312250561648 0 0 0
41 1 18.867113260845603 6.288397875714021 22.00954285907259 0 0 -1
42 1 20.439067093153472 7.8605091476641205 1.5720575191592803 0 0 0
43 1 0.0014204881787398022 9.432539102873239 22.009542856029423 0 0 -1
44 1 1.573398624681598 11.00463996594881 1.5720212185237732 0 0 0
45 1 3.145140521286715 9.432378685611502 22.009542855675157 0 0 -1
46 1 4.717019286021009 11.004667049149358 1.571694434242633 0 0 0
47 1 6.2888747713210345 9.43208000432161 22.009542855497315 0 0 -1
48 1 7.860899191973192 11.004706517737405 1.570714599455227 0 0 0
49 1 9.433304111918481 9.43170042185778 22.009542856452 0 0 -1
50 1 11.006014790374573 11.004742168033616 1.5692962228425256 0 0 0
51 1 12.578944390981263 9.431897130355072 22.009542857211095 0 0 -1
52 1 14.150858731243787 11.004747372843456 1.5715088928980625 0 0 0
53 1 15.723044540171792 9.43247693592215 22.009542857964455 0 0 -1
54 1 17.29500378468974 11.004715760530212 1.572004161424284 0 0 0
55 1 18.86704995632878 9.432596679433942 22.009542857676003 0 0 -1
56 1 20.43909563155046 11.004665308925416 1.5720576696406865 0 0 0
57 1 0.0014525409605124274 12.57674384604706 22.009542855741852 0 0 -1
58 1 1.5733523898031707 14.148978320762748 1.5720030561673748 0 0 0
59 1 3.1451484033146673 12.576911081849593 22.009542854806643 0 0 -1
60 1 4.7169644064312966 14.149463825627842 1.5717205854423164 0 0 0
61 1 6.288885899296264 12.577273936152828 22.00954285400908 0 0 -1
62 1 7.860842791405591 14.15036058908562 1.570912183376807 0 0 0
63 1 9.433329561131 12.577739861546497 22.009542853630926 0 0 -1
64 1 11.006305901447224 14.15011952280732 1.570971102059866 0 0 0
65 1 12.578971894873385 12.577587160963416 22.0095428545239 0 0 -1
66 1 14.15131705756722 14.149757834303172 1.5715956418681953 0 0 0
67 1 15.723084315149928 12.576975647666766 22.00954285562005 0 0 -1
68 1 17.295184032162922 14.148969782433774 1.5720155287545305 0 0 0
69 1 18.867084600432715 12.576758097960226 22.00954285643747 0 0 -1
70 1 20.43912029375277 14.148828990492467 1.5720614999712865 0 0 0
71 1 0.0014146394139178623 15.721004172032247 22.00954285597873 0 0 -1
72 1 1.573267302872152 17.293266219810675 1.5719999160562796 0 0 0
73 1 3.145075317849182 15.72137269611657 22.009542854626083 0 0 -1
74 1 4.7170814495808235 17.29379009610582 1.571804868992575 0 0 0
75 1 6.288962345365116 15.722087410938286 22.00954285282384 0 0 -1
76 1 7.86160975198233 17.294239077750778 1.5715306590321179 0 0 0
77 1 9.433933503305695 15.722223468119934 22.00954285266157 0 0 -1
78 1 11.006641731851456 17.294070706410007 1.5716981612076875 0 0 0
79 1 12.578964856541747 15.721937427999345 22.009542853605215 0 0 -1
80 1 14.15125525149144 17.293701024530897 1.5718770235354473 0 0 0
81 1 15.723363735183927 15.721453192254861 22.009542854823025 0 0 -1
82 1 17.295302228238427 17.293231017551985 1.5720434037863242 0 0 0
83 1 18.867180375691014 15.720985176008401 22.009542856118095 0 0 -1
84 1 20.439108638291472 17.293084154242226 1.5720469325624835 0 0 0
85 1 0.001339586229779525 18.865237913706434 22.009542856110993 0 0 -1
86 1 1.5732130666744515 20.437379663684634 1.5719909319015628 0 0 0
87 1 3.1451344848143785 18.865503320927903 22.009542855167403 0 0 -1
88 1 4.717239126719082 20.43763222797535 1.5718093258231935 0 0 0
89 1 6.289425977219085 18.865907524936176 22.009542853416544 0 0 -1
90 1 7.861963737698899 20.43775844424713 1.5717657078515401 0 0 0
91 1 9.434304277255356 18.865937378099822 22.00954285327503 0 0 -1
92 1 11.006757404967173 20.437744619643766 1.5718261237310975 0 0 0
93 1 12.579012030452565 18.86577654842828 22.00954285422473 0 0 -1
94 1 14.151270773727735 20.437603889886187 1.571911743189429 0 0 0
95 1 15.723324654027099 18.86547616702064 22.00954285521667 0 0 -1
96 1 17.29531932125808 20.437405766772766 1.5720280785499452 0 0 0
97 1 18.86717147211312 18.865221658287915 22.009542856233626 0 0 -1
98 1 20.43904996280067 20.43731813425126 1.5720707361534216 0 0 0
99 1 0.0014096896003694174 22.009443352438073 3.1440683697170186 0 -1 0
100 1 1.5733691163794574 1.571966263159068 4.7160457348643385 0 0 0
101 1 3.1451650049473354 22.00944667027377 3.1438386765007955 0 -1 0
102 1 4.717140408165473 1.5717453638946612 4.71557766714958 0 0 0
103 1 6.289523122555057 22.00948820852345 3.1435885924752727 0 -1 0
104 1 7.861844438183994 1.571529717241789 4.715410345427069 0 0 0
105 1 9.434405669583628 22.00954095884787 3.143648267086307 0 -1 0
106 1 11.00689483033634 1.5716733592678118 4.7155795493740555 0 0 0
107 1 12.579144687912539 1.5123552394413764e-05 3.1437424203824906 0 0 0
108 1 14.151555032850851 1.5719050708721896 4.715746205942384 0 0 0
109 1 15.723463875381332 22.00953684223938 3.143919760791044 0 -1 0
110 1 17.29551273310406 1.5720873706562364 4.716108921504864 0 0 0
111 1 18.867271755853885 22.00948992990125 3.1441070287623663 0 -1 0
112 1 20.439297437211334 1.5720335546519724 4.7161827477098806 0 0 0
113 1 0.0015075948049366613 3.144136314285798 3.1441214778738673 0 0 0
114 1 1.5737765801856507 4.716204725226048 4.716209924718288 0 0 0
115 1 3.145249380735072 3.1438807159854134 3.143918425675413 0 0 0
116 1 4.717443217682745 4.715769573167065 4.7158195204185045 0 0 0
117 1 6.289303838086075 3.1433339695661435 3.1434144328791485 0 0 0
118 1 7.861252391272603 4.714485462892219 4.714636894636357 0 0 0
119 1 9.434341269703946 3.1434080841653476 3.143571925205853 0 0 0
120 1 11.006784182893956 4.715139306347003 4.715469084188375 0 0 0
121 1 12.579077541032413 3.1437170479892815 3.143742422709056 0 0 0
122 1 14.151365618679806 4.7158471918322356 4.715861914437956 0 0 0
123 1 15.723370943131172 3.144072148702532 3.144002523482001 0 0 0
124 1 17.295465747978245 4.71625453798649 4.716121420460675 0 0 0
125 1 18.867287120117517 3.144192090121618 3.1441237667186375 0 0 0
126 1 20.43950017995685 4.716233796556145 4.7161702685226325 0 0 0
127 1 0.0016087995325664952 6.288311038794602 3.1440962443390386 0 0 0
128 1 1.573925181303916 7.8603714799208335 4.716165641791757 0 0 0
129 1 3.145226118362574 6.287940298094386 3.1439010649104295 0 0 0
130 1 4.71715508747218 7.859724654307348 4.715458629655874 0 0 0
131 1 6.28885850209036 6.287093082618148 3.1431538601520175 0 0 0
132 1 7.85997910887536 7.857953941480982 4.713061590231629 0 0 0
133 1 9.433716485674669 6.2867951148182195 3.1427038567877155 0 0 0
134 1 11.005534392853653 7.858541716748077 4.71297327905742 0 0 0
135 1 12.578914785677343 6.287441171723579 3.1434433745961883 0 0 0
136 1 14.150888219228316 7.859854883277711 4.715451837112612 0 0 0
137 1 15.723244117783342 6.288167538563079 3.143995548471859 0 0 0
138 1 17.29535950763049 7.860441561634721 4.715909465274432 0 0 0
139 1 18.867283479874626 6.288391336717697 3.1440760145069326 0 0 0
140 1 20.439610864008248 7.860476418203523 4.71608378713247 0 0 0
141 1 0.001689025746453718 9.432564824034559 3.1441205266318195 0 0 0
142 1 1.5740426674106505 11.004675354320318 4.7161649282940195 0 0 0
143 1 3.1453883478234 9.432403945085621 3.143901703444639 0 0 0
144 1 4.717437596840029 11.004706973057193 4.715441777766858 0 0 0
145 1 6.288750742719631 9.431968724927785 3.142723968240348 0 0 0
146 1 7.860508909613225 11.004778189799298 4.712022775925322 0 0 0
147 1 9.432310028035108 9.430807083501788 3.139902082143705 0 0 0
148 1 11.004095003970118 11.004818621000556 4.701948626024876 0 0 0
149 1 12.578922651837704 9.431294243137998 3.141301415424001 0 0 0
150 1 14.149123074842105 11.004807424071641 4.714867313809167 0 0 0
151 1 15.722821883217915 9.4325954551249 3.1438260470308452 0 0 0
152 1 17.29490707059569 11.004757272036388 4.7159745131922755 0 0 0
153 1 18.867156885371283 9.432654739216497 3.144079923503828 0 0 0
154 1 20.439603138097283 11.004696432206348 4.716115085781734 0 0 0
155 1 0.0017094248589405129 12.576764372396024 3.144109807061024 0 0 0
156 1 1.5739439715632044 14.148978829280136 4.7161454892379835 0 0 0
157 1 3.145402819286138 12.576928944584205 3.143889618729379 0 0 0
158 1 4.7171746790292355 14.149701497616146 4.715440859900909 0 0 0
159 1 6.288770215675965 12.57744679747655 3.1427128730144394 0 0 0
160 1 7.859992302716141 14.15161495064238 4.713015979726667 0 0 0
161 1 9.432333619182074 12.578713748538783 3.1398801965935017 0 0 0
162 1 11.005563110744717 14.151111296703325 4.712903142032812 0 0 0
163 1 12.578947759543853 12.578268879244327 3.14127803013985 0 0 0
164 1 14.150934546526218 14.149774742839066 4.715407819350601 0 0 0
165 1 15.72284642324879 12.576932223469267 3.1438192347091207 0 0 0
166 1 17.295396702896674 14.149082439334725 4.715890646169422 0 0 0
167 1 18.86717205393541 12.576758887387273 3.1440781302660303 0 0 0
168 1 20.43963694614133 14.148926824135078 4.716086744555836 0 0 0
169 1 0.0016466420089088637 15.721018800244194 3.1440908452009197 0 0 0
170 1 1.5738016632667051 17.293152378788506 4.716196600087374 0 0 0
171 1 3.1452620225555825 15.721399923751008 3.1438891797185096 0 0 0
172 1 4.717452679386048 17.29365692867143 4.715794539457652 0 0 0
173 1 6.288888940964557 15.722329360538415 3.143123471307137 0 0 0
174 1 7.861273616803122 17.29506036160116 4.714589430825451 0 0 0
175 1 9.433759144484371 15.722732302412936 3.1426519285109036 0 0 0
176 1 11.006835718508167 17.294502292198032 4.715404525876213 0 0 0
177 1 12.57897526268626 15.722139618885363 3.143394252406211 0 0 0
178 1 14.151422677737798 17.29378088976397 4.715812017528375 0 0 0
179 1 15.723297513253248 15.721359601706382 3.1439606493706314 0 0 0
180 1 17.295524297988386 17.293266848382594 4.716100535379686 0 0 0
181 1 18.86734420321864 15.721020822379629 3.1440590220428986 0 0 0
182 1 20.439546975202077 17.293157019470808 4.716154329378089 0 0 0
183 1 0.001537167787704393 18.86521643698439 3.1441183802586665 0 0 0
184 1 1.5733719574557796 20.437410054364367 4.716049858592123 0 0 0
185 1 3.1452740741598766 18.865466076029154 3.1439093130026885 0 0 0
186 1 4.717150991482821 20.437677781255132 4.715562658559999 0 0 0
187 1 6.289325557514524 18.86609722777797 3.1433951486591076 0 0 0
188 1 7.8618536514986985 20.437995507088367 4.7153746321900085 0 0 0
189 1 9.43437096036708 18.866135802096764 3.1435223156568357 0 0 0
190 1 11.006920346709192 20.437931231067214 4.71553745492323 0 0 0
191 1 12.57911976100631 18.865875340601512 3.1436916668117356 0 0 0
192 1 14.151591200053161 20.437701711985127 4.715713979298604 0 0 0
193 1 15.723424544566285 18.86546823833276 3.1439719288134085 0 0 0
194 1 17.29553757663507 20.43742546821291 4.716090263845774 0 0 0
195 1 18.867326041838762 18.86523725811578 3.1441151407223025 0 0 0
196 1 20.43931246082398 20.437370234053365 4.7161707025661 0 0 0
197 1 0.001681346682927358 22.00948454609975 6.288283379692473 0 -1 0
198 1 1.573656660359545 1.5720277154932045 7.860369342255679 0 0 0
199 1 3.1452129207869013 22.009494390138155 6.287933966610759 0 -1 0
200 1 4.717102678667516 1.5716800418614918 7.859848667087149 0 0 0
201 1 6.289141681178937 22.009527352524813 6.287298084427427 0 -1 0
202 1 7.861206024397846 1.57075691137283 7.85914336603822 0 0 0
203 1 9.434417778553565 3.3093376384130124e-05 6.287441409078486 0 0 0
204 1 11.007283240606563 1.5709441740387904 7.859549240530086 0 0 0
205 1 12.579578445646678 5.0572963267825344e-05 6.287559219321342 0 0 0
206 1 14.152105230117408 1.5717098023230645 7.859792524736447 0 0 0
207 1 15.723847896370705 2.4441333064117998e-05 6.287936114650393 0 0 0
208 1 17.29586682840346 1.5720055011073082 7.86031930081693 0 0 0
209 1 18.86760010820562 22.00952183448538 6.28825738910774 0 -1 0
210 1 20.43958010918496 1.5720660265619173 7.860460420998086 0 0 0
211 1 0.0018644392419096291 3.14411813162791 6.28828761691668 0 0 0
212 1 1.5742082257568346 4.716250784685752 7.860448696799634 0 0 0
213 1 3.145386069573076 3.143897059315699 6.287980868864735 0 0 0
214 1 4.717381292277618 4.7155302298244575 7.859776333600804 0 0 0
215 1 6.288985784572317 3.1430031125744304 6.287066284782428 0 0 0
216 1 7.860002425706085 4.712517612979614 7.8576686533417455 0 0 0
217 1 9.434351063054386 3.1426290838541613 6.287337258098595 0 0 0
218 1 11.007854813275307 4.712690438238986 7.859575028949629 0 0 0
219 1 12.579616565606148 3.1432786495675127 6.2874664662166015 0 0 0
220 1 14.151835456799434 4.715760967382098 7.860173844916778 0 0 0
221 1 15.723684227416513 3.14407720542133 6.288100306814777 0 0 0
222 1 17.296198195600002 4.7158641779508885 7.860081700300716 0 0 0
223 1 18.867694012344902 3.1440697433250864 6.288212993289954 0 0 0
224 1 20.440013639636987 4.716191518223079 7.860406892745092 0 0 0
225 1 0.0025272613332470903 6.288255781523068 6.288213243870124 0 0 0
226 1 1.5754609967638153 7.860448376198062 7.860422196688412 0 0 0
227 1 3.1464238191117553 6.288452017424748 6.288457201802271 0 0 0
228 1 4.720071102285828 7.861072246049585 7.860907319052386 0 0 0
229 1 6.289964029314743 6.287788981169263 6.287714588544557 0 0 0
230 1 7.864407721851145 7.86144037126919 7.859021757256204 0 0 0
231 1 9.4327265729347 6.284641793971779 6.285576091597897 0 0 0
232 1 11.0027592583955 7.852216365455106 7.855445384978182 0 0 0
233 1 12.579380868645064 6.287236565363561 6.287573554888097 0 0 0
234 1 14.152331517460205 7.860452968393364 7.8609412298516 0 0 0
235 1 15.723524466830632 6.288248353867276 6.288060288172673 0 0 0
236 1 17.29722399346362 7.859668628630371 7.859201486042348 0 0 0
237 1 18.868053586836208 6.288125691768076 6.287984026786379 0 0 0
238 1 20.441187074994783 7.859996555767967 7.859832396827069 0 0 0
239 1 0.00276830179144251 9.432578787444493 6.2882332533319545 0 0 0
240 1 1.5758146506220643 11.004721039661494 7.860557768147112 0 0 0
241 1 3.1465636758610027 9.432565940021812 6.288247072272586 0 0 0
242 1 4.719966699929098 11.004773699381602 7.86086589613338 0 0 0
243 1 6.288727819832501 9.431527908979449 6.2858217039047 0 0 0
244 1 7.858660091687579 11.004877851919213 7.852153118482009 0 0 0
245 1 9.428743924526312 9.427022027624245 6.278798488550395 0 0 0
246 1 11.004317116878502 11.004951257037511 7.805071384460659 0 0 0
247 1 12.575451017261928 9.430231243783739 6.283255502030763 0 0 0
248 1 14.149633334814363 11.004897432186455 7.856388537006197 0 0 0
249 1 15.72262659285107 9.432494813325036 6.287151877826 0 0 0
250 1 17.2969359206053 11.004779687224094 7.859650395986123 0 0 0
251 1 18.86799007024481 9.432589541439697 6.287809566715283 0 0 0
252 1 20.441351279462395 11.004725373677726 7.860058403692912 0 0 0
253 1 0.0027751843442578293 12.576819708322141 6.28824010028898 0 0 0
254 1 1.575462213287463 14.148979033664771 7.860415783325507 0 0 0
255 1 3.146570066741425 12.576858124894574 6.288244580801777 0 0 0
256 1 4.720050492478127 14.14846872505916 7.860880104968389 0 0 0
257 1 6.288723327899145 12.578044970546705 6.285800959622948 0 0 0
258 1 7.8643779873964395 14.148315510848198 7.858981723829957 0 0 0
259 1 9.42873602644691 12.582709563401009 6.278741707270449 0 0 0
260 1 11.002747734994559 14.157673262096884 7.8553202631341 0 0 0
261 1 12.575479344476236 12.57952559520358 6.28317186715686 0 0 0
262 1 14.15242231801719 14.149374026666344 7.8608514522138 0 0 0
263 1 15.722656602764028 12.577128751990443 6.287123399046125 0 0 0
264 1 17.29729591907985 14.14995495093581 7.859160509850865 0 0 0
265 1 18.868006242993758 12.576887831154652 6.287811277111145 0 0 0
266 1 20.441208042401787 14.14945984620636 7.859832817152804 0 0 0
267 1 0.002556390522491084 15.72113500678309 6.288196410644742 0 0 0
268 1 1.5742105862468045 17.293185319803207 7.860434266248608 0 0 0
269 1 3.146422069027578 15.720978313845928 6.288437099314529 0 0 0
270 1 4.717350214014015 17.294001122035358 7.859758509794278 0 0 0
271 1 6.28996654029814 15.721773146897023 6.287669483453924 0 0 0
272 1 7.860008334055253 17.297152395686023 7.857638923729604 0 0 0
273 1 9.432729078449373 15.725076933675899 6.285511090806728 0 0 0
274 1 11.007871924000252 17.29707936325177 7.859528635471062 0 0 0
275 1 12.579416572133468 15.722501933946997 6.287516163974544 0 0 0
276 1 14.151871946604942 17.293969667026055 7.86014605046624 0 0 0
277 1 15.723581853818548 15.721405092564286 6.288025640293036 0 0 0
278 1 17.296251955251257 17.293730450586622 7.860049061623171 0 0 0
279 1 18.868099159614964 15.721367905998681 6.287954946793292 0 0 0
280 1 20.440056564366234 17.293284553553733 7.860409726135104 0 0 0
281 1 0.0018850097834840272 18.86528732104802 6.288287400482367 0 0 0
282 1 1.57364549046575 20.437432346761327 7.860366668915841 0 0 0
283 1 3.1453820132493453 18.865522151797396 6.287969881122919 0 0 0
284 1 4.71710305218338 20.43782668074491 7.8598355445010695 0 0 0
285 1 6.288978359700078 18.866526891708933 6.287045414419505 0 0 0
286 1 7.86119945658313 20.43885349984734 7.859129745038874 0 0 0
287 1 9.434371173698862 18.867016320054606 6.287280220537288 0 0 0
288 1 11.007301561032532 20.43874701239575 7.859523650488285 0 0 0
289 1 12.57966253208147 18.866406291658617 6.2874078964108495 0 0 0
290 1 14.152143028311068 20.43796001758741 7.859778355410698 0 0 0
291 1 15.723738374085357 18.865526600484944 6.288072809795917 0 0 0
292 1 17.295914756853417 20.437572224896595 7.860319513402865 0 0 0
293 1 18.867746286610227 18.865414367022158 6.288210043614911 0 0 0
294 1 20.43960589711609 20.43741163364351 7.860464747632765 0 0 0
295 1 0.001908117264965894 22.00951788542611 9.43260356670205 0 -1 0
296 1 1.5738055127007833 1.5720579679058941 11.004769360219182 0 0 0
297 1 3.1454419438153556 22.00953278319268 9.432475091167388 0 -1 0
298 1 4.717300715333438 1.5717583522165286 11.004769358952906 0 0 0
299 1 6.289051035330631 1.1126957563334372e-05 9.432046286081773 0 0 0
300 1 7.861158336400963 1.5701844063419554 11.004769358502726 0 0 0
301 1 9.43412156275436 6.470056904817056e-05 9.431835478220432 0 0 0
302 1 11.007385514148776 1.5693104877320185 11.004769359158468 0 0 0
303 1 12.580048949474303 7.528349487227337e-05 9.43193082370288 0 0 0
304 1 14.152009066802107 1.5715994737367944 11.004769359605307 0 0 0
305 1 15.724020707841177 5.073980218028851e-05 9.43245984632645 0 0 0
306 1 17.295942427196948 1.57202413613568 11.004769360061106 0 0 0
307 1 18.867793634965007 2.3749935351702334e-06 9.432591302567442 0 0 0
308 1 20.439712834516566 1.572093359543032 11.004769360019294 0 0 0
309 1 0.002172542295531101 3.144189029042051 9.432619848129011 0 0 0
310 1 1.574515390354832 4.71632542748747 11.004769359110222 0 0 0
311 1 3.1457565543795196 3.144018699022696 9.432529439305489 0 0 0
312 1 4.718073418667616 4.715939343382315 11.004769357846989 0 0 0
313 1 6.288902422525512 3.14246216460097 9.431773652509552 0 0 0
314 1 7.859814278690051 4.709757122973999 11.004769356781928 0 0 0
315 1 9.43331318960389 3.1386599231302195 9.431172118392803 0 0 0
316 1 11.007568484777302 4.702448378355001 11.004769358256313 0 0 0
317 1 12.580507297331222 3.1418849653923147 9.431459025010387 0 0 0
318 1 14.151627375512918 4.714954492323814 11.004769359219878 0 0 0
319 1 15.72410021028411 3.1437916817913636 9.432476862283867 0 0 0
320 1 17.296267818125752 4.71616162663479 11.0047693599588 0 0 0
321 1 18.867929032429355 3.1441406129356775 9.43260403087669 0 0 0
322 1 20.440253636507645 4.716256679750782 11.00476935909744 0 0 0
323 1 0.0031242986877013683 6.2884005436130685 9.432608776009149 0 0 0
324 1 1.5761422423958964 7.860702351253157 11.004769356688122 0 0 0
325 1 3.147052879788279 6.288503688142115 9.432668605325343 0 0 0
326 1 4.7208664545104995 7.861704321719759 11.004769354831398 0 0 0
327 1 6.289610964966431 6.286401098194591 9.430797514916238 0 0 0
328 1 7.857835707376049 7.850065091725439 11.004769353583258 0 0 0
329 1 9.429387631097976 6.271475631062782 9.428504043312264 0 0 0
330 1 10.999737899029203 7.8020637362039285 11.004769354975785 0 0 0
331 1 12.580973692882434 6.287875964708593 9.432617117694427 0 0 0
332 1 14.157221401203888 7.855887153488854 11.004769355332645 0 0 0
333 1 15.725330725091709 6.287215867005005 9.431907593359501 0 0 0
334 1 17.297824671763767 7.861190621004515 11.004769358114018 0 0 0
335 1 18.8687192703413 6.288182407114983 9.432525769901096 0 0 0
336 1 20.44163828068272 7.860397613744551 11.004769357880805 0 0 0
337 1 0.004685529135720802 9.432350520420428 9.432293613609222 0 0 0
338 1 1.57703101023435 11.004727570318646 11.004769354960823 0 0 0
339 1 3.148973517709132 9.432536752948872 9.432442724065318 0 0 0
340 1 4.719745624445973 11.004803584581222 11.004769353029978 0 0 0
341 1 6.298379400826449 9.434266530195384 9.431987057328639 0 0 0
342 1 7.843891644710757 11.004956247027762 11.004769359026598 0 0 0
343 1 9.42318308046754 9.394599457660936 9.43610831129103 0 0 0
344 1 20.43904996441623 20.437318132926624 20.437467978263076 0 0 0
345 1 12.583302303542665 9.40573747339174 9.402234633689883 0 0 0
346 1 14.230709656029449 11.005041996443575 11.004769355111467 0 0 0
347 1 15.727864778450819 9.430760100107806 9.427922563107735 0 0 0
348 1 17.3145617504955 11.00482159258188 11.00476935601202 0 0 0
349 1 18.871759103281267 9.431362097930434 9.430914624455832 0 0 0
350 1 20.444938627765286 11.004737246984794 11.004769356525895 0 0 0
351 1 0.004685906263066837 12.57710224806514 9.43229030159745 0 0 0
352 1 1.5761335704334973 14.14878366664829 11.004769355603688 0 0 0
353 1 3.1489671770694603 12.576959549830082 9.432436511972632 0 0 0
354 1 4.72083159411627 14.147894722514069 11.004769351864743 0 0 0
355 1 6.298355543075191 12.575465922780378 9.431974547282877 0 0 0
356 1 7.857812065816305 14.159757441219828 11.00476934899968 0 0 0
357 1 9.42314408128174 12.615346238205815 9.436022583280716 0 0 0
358 1 10.999803080838623 14.207688483677213 11.004769352458354 0 0 0
359 1 12.583438245225818 12.60428912115833 9.402086091002268 0 0 0
360 1 14.15738944394365 14.15408191920913 11.004769353551282 0 0 0
361 1 15.727955210762602 12.579036550443375 9.42790077458652 0 0 0
362 1 17.297925650250598 14.148488143669681 11.00476935572617 0 0 0
363 1 18.87180408480881 12.578165175489843 9.430910355555152 0 0 0
364 1 20.441655305912693 14.149089346402112 11.004769357328497 0 0 0
365 1 0.003134264822691578 15.721057865331819 9.432615246831164 0 0 0
366 1 1.5745059843432319 17.29314669649765 11.004769356544184 0 0 0
367 1 3.147019426436292 15.721002974097093 9.432665555637032 0 0 0
368 1 4.718025800638714 17.29363360364924 11.004769353238435 0 0 0
369 1 6.289574657066717 15.723275451637841 9.430781927393072 0 0 0
370 1 7.859796714579811 17.299976836991657 11.004769352353614 0 0 0
371 1 9.429403955289244 15.738312171974735 9.42849198125843 0 0 0
372 1 11.007579405340454 17.30732368839438 11.004769352655089 0 0 0
373 1 12.580987378994752 15.721976596876777 9.432577904228255 0 0 0
374 1 14.151664322440027 17.29485011642304 11.00476935421051 0 0 0
375 1 15.72541899360604 15.722545569358 9.431858105320314 0 0 0
376 1 17.29631478139193 17.29346747320328 11.004769356463388 0 0 0
377 1 18.868755319702597 15.721364125016802 9.432509458317622 0 0 0
378 1 20.440276365916358 17.293238212232303 11.004769357751973 0 0 0
379 1 0.0021877048897277376 18.865293773165437 9.432617508268812 0 0 0
380 1 1.573794956628755 20.437448648342695 11.004769358441735 0 0 0
381 1 3.145733199798798 18.865480481537535 9.432521900864586 0 0 0
382 1 4.717290601774993 20.437789262376896 11.004769356322312 0 0 0
383 1 6.2888741820648715 18.86715957396468 9.43175904115673 0 0 0
384 1 7.861140598542324 20.43947404604982 11.004769355619382 0 0 0
385 1 9.433324859420127 18.871064084532627 9.431156979584125 0 0 0
386 1 11.007411873408204 20.44040711162484 11.004769355887099 0 0 0
387 1 12.580537057937008 18.86786901842329 9.431448574818049 0 0 0
388 1 14.152043551523255 20.438101026259396 11.004769357367326 0 0 0
389 1 15.724150954424884 18.86588160880821 9.432464457990848 0 0 0
390 1 17.29599579621522 20.437578039862167 11.004769358281818 0 0 0
391 1 18.86798305462114 18.865397423075382 9.43260392019327 0 0 0
392 1 20.43974760741823 20.43743750340812 11.00476935888566 0 0 0
393 1 0.0019081183793774983 22.009517885614386 12.576935152536054 0 -1 0
394 1 1.5736566621292534 1.5720277155086881 14.149169376515712 0 0 0
395 1 3.1454419455371907 22.009532782242466 12.577063625648224 0 -1 0
396 1 4.717102681680391 1.5716800401954276 14.149690049392587 0 0 0
397 1 6.289051036676147 1.1124755236124884e-05 12.577492428123387 0 0 0
398 1 7.861206026902936 1.5707569076907548 14.150395350582192 0 0 0
399 1 9.434121564188233 6.469785645535353e-05 12.577703235966192 0 0 0
400 1 11.007283242509779 1.5709441697936344 14.149989477037488 0 0 0
401 1 12.580048950291664 7.528102773399448e-05 12.577607892081492 0 0 0
402 1 14.152105231164246 1.5717097991396949 14.149746194788612 0 0 0
403 1 15.724020708835063 5.0738396900840144e-05 12.577078871659351 0 0 0
404 1 17.2958668292233 1.5720054997330961 14.149219418725368 0 0 0
405 1 18.867793635943787 2.3746405055646846e-06 12.576947415850814 0 0 0
406 1 20.43958011040475 1.5720660272749656 14.149078298636596 0 0 0
407 1 0.002172542956364738 3.1441890293825288 12.576918871943962 0 0 0
408 1 1.5742082276835028 4.716250784724838 14.149090020616079 0 0 0
409 1 3.145756556146524 3.144018698978659 12.57700927949264 0 0 0
410 1 4.717381296110172 4.715530228708006 14.149762382030303 0 0 0
411 1 6.288902424356192 3.1424621634927594 12.577765064599994 0 0 0
412 1 7.860002429061716 4.7125176096400025 14.151870063242395 0 0 0
413 1 9.433313191197218 3.1386599205290104 12.578366599836388 0 0 0
414 1 11.007854816501917 4.712690433745737 14.149963689557088 0 0 0
415 1 12.580507297584552 3.1418849632827275 12.578079694352377 0 0 0
416 1 14.151835457888737 4.715760963953832 14.149364875229587 0 0 0
417 1 15.724100210812923 3.143791680132363 12.577061858416515 0 0 0
418 1 17.296198196003516 4.71586417632789 14.149457018918604 0 0 0
419 1 18.867929032528863 3.1441406128277722 12.576934688807707 0 0 0
420 1 20.440013640419476 4.716191518633053 14.14913182613228 0 0 0
421 1 0.0031242998442470777 6.288400544336384 12.576929940510277 0 0 0
422 1 1.5754609991041766 7.860448375710944 14.149116516223216 0 0 0
423 1 3.1470528817132597 6.28850368811655 12.576870108628214 0 0 0
424 1 4.720071104887499 7.861072243260411 14.14863139204632 0 0 0
425 1 6.289610967098673 6.286401097177313 12.578741196538443 0 0 0
426 1 7.864407723111155 7.8614403654691065 14.150516953227829 0 0 0
427 1 9.429387633066533 6.271475626933734 12.581034668844861 0 0 0
428 1 11.00275926086671 7.852216357941895 14.15409332547845 0 0 0
429 1 12.580973693840736 6.287875961082981 12.576921596680094 0 0 0
430 1 14.152331520187337 7.860452964406432 14.148597483342852 0 0 0
431 1 15.725330725884714 6.287215865821007 12.577631123346395 0 0 0
432 1 17.2972239945435 7.859668626477162 14.150337229558007 0 0 0
433 1 18.86871927100414 6.288182406522431 12.577012947964853 0 0 0
434 1 20.441187076686393 7.859996555897003 14.149706319074207 0 0 0
435 1 0.004685530578900696 9.43235052014427 12.577245099747373 0 0 0
436 1 1.575814654286821 11.00472103798492 14.148980942966867 0 0 0
437 1 3.14897351853335 9.432536751841617 12.577095985229901 0 0 0
438 1 4.719966701826608 11.004773696592723 14.148672812119045 0 0 0
439 1 6.29837939803153 9.434266525770287 12.577551652213653 0 0 0
440 1 7.8586600907403765 11.004877848686219 14.157385588782041 0 0 0