LAMMPS data file via write_data, version 2 Aug 2023, timestep = 16, units = metal

686 atoms
3 atom types

0 22.009546999999998 xlo xhi
0 22.009546999999998 ylo yhi
0 22.009546999999998 zlo zhi

Masses

1 183.84
2 1.008
3 4.0026

Atoms # atomic

1 1 22.009297831965473 22.009294546910926 22.009297831965473 -1 -1 -1
2 1 1.5722175061442722 1.5722142243571802 1.5722175061442727 0 0 0
3 1 3.144647660641957 22.009227658452097 22.009230942956975 0 -1 -1
4 1 4.716800758075851 1.5721825704790833 1.572185863087913 0 0 0
5 1 6.288953612845739 22.009212954387337 22.009216264367684 0 -1 -1
6 1 7.860928046142914 1.5722664273949989 1.5722697467425806 0 0 0
7 1 9.432868414530825 22.009245981725872 22.00924931709209 0 -1 -1
8 1 11.004704936401073 1.5723347144403252 1.5723380622391903 0 0 0
9 1 12.576597694598764 22.00930344624631 22.009306798391265 0 -1 -1
10 1 14.148430344474647 1.5723899931090266 1.5723933353417994 0 0 0
11 1 15.720432695189986 22.00933439523311 22.009337731295126 0 -1 -1
12 1 17.29239215523105 1.5723867021312496 1.5723900303279128 0 0 0
13 1 18.864655960816215 22.00934494848802 22.009348258719854 0 -1 -1
14 1 20.436802978221944 1.572309866132782 1.5723131595073652 0 0 0
15 1 22.009230940022096 3.1446443703404996 22.009230940022096 -1 0 -1
16 1 1.572185867705758 4.716797479490559 1.5721858677057579 0 0 0
17 1 3.144726442772856 3.144723150798005 22.009094055362574 0 0 -1
18 1 4.717063260279324 4.71705996992355 1.5722408792931248 0 0 0
19 1 6.2890451119212845 3.144805193670453 22.009072125307405 0 0 -1
20 1 7.861169158220217 4.717262444046094 1.5723566317323199 0 0 0
21 1 9.432907800506301 3.1449064853722453 22.009144652637538 0 0 -1
22 1 11.004762598425621 4.717393283914213 1.5724652195214477 0 0 0
23 1 12.576560128003374 3.1449523836350775 22.009236244998156 0 0 -1
24 1 14.148258856203247 4.717413413079897 1.5726093757023205 0 0 0
25 1 15.720309862952183 3.1449526738299487 22.009295011069533 0 0 -1
26 1 17.292074737841205 4.71730933367663 1.57266023543102 0 0 0
27 1 18.864462163469334 3.144825262045916 22.00933324436697 0 0 -1
28 1 20.436618412149713 4.716996981702776 1.5723363564456863 0 0 0
29 1 22.009216264381106 6.288950326450158 22.009216264381106 -1 0 -1
30 1 1.5722697451597207 7.860924764056689 1.5722697451597203 0 0 0
31 1 3.144808504948821 6.289041826394292 22.009072131365354 0 0 -1
32 1 4.717265768860847 7.861165864986522 1.5723566254546377 0 0 0
33 1 6.289280654366704 6.289277349817162 22.008661844013155 0 0 -1
34 1 7.8610162933841154 7.861012972620421 1.5722490474596698 0 0 0
35 1 9.433159096541525 6.289586451706669 22.00873854941965 0 0 -1
36 1 11.004879619713845 7.861516860859344 1.572640708042561 0 0 0
37 1 12.576527547291692 6.289644963107745 22.00894061627432 0 0 -1
38 1 14.148418198507816 7.86129582718991 1.5727320448634947 0 0 0
39 1 15.720178797506357 6.2894502096675 22.009075830408772 0 0 -1
40 1 17.292050423992276 7.861271036192153 1.5727329479268375 0 0 0
41 1 18.86424266682431 6.289286370629333 22.00911579851976 0 0 -1
42 1 20.43661331365745 7.861044420928889 1.5723950881945399 0 0 0
43 1 22.009249316918023 9.432865127252908 22.009249316918023 -1 0 -1
44 1 1.5723380609167035 11.004701665629813 1.572338060916704 0 0 0
45 1 3.1449098244174376 9.432904516122532 22.00914465121747 0 0 -1
46 1 4.717396627700842 11.004759307005592 1.5724652252695441 0 0 0
47 1 6.28958978642172 9.433155780262714 22.008738550308138 0 0 -1
48 1 7.861520206119295 11.004876299555276 1.5726407139817598 0 0 0
49 1 9.432875014270216 9.432871674144838 22.008451749171332 0 0 -1
50 1 11.00477109920034 11.00476775433317 1.571680189952513 0 0 0
51 1 12.576751621926684 9.433160529242816 22.008513901264962 0 0 -1
52 1 14.148446134242723 11.004763725878167 1.5729315481497634 0 0 0
53 1 15.72026994542956 9.43303611194922 22.009000171421434 0 0 -1
54 1 17.292002990703917 11.00486802759102 1.5727085427467693 0 0 0
55 1 18.864222484472602 9.433063509768411 22.009132164250854 0 0 -1
56 1 20.436687067067556 11.004757965245314 1.5724213154683035 0 0 0
57 1 22.009306802264813 12.57659442022631 22.009306802264813 -1 0 -1
58 1 1.5723933288262426 14.148427069418416 1.5723933288262424 0 0 0
59 1 3.144955727667055 12.576556844500276 22.009236243979153 0 0 -1
60 1 4.71741676824859 14.148255568336001 1.572609378930364 0 0 0
61 1 6.289648313767757 12.576524245313681 22.008940622678622 0 0 -1
62 1 7.8612991650267725 14.148414870055856 1.5727320451775406 0 0 0
63 1 9.433163878067658 12.576748286047884 22.00851390416891 0 0 -1
64 1 11.00476707283046 14.148442788582344 1.5729315491202978 0 0 0
65 1 12.576795544536315 12.576792200516447 22.009515794417993 0 0 -1
66 1 14.148778248687659 14.148774903621549 1.572730291642562 0 0 0
67 1 15.720119772181466 12.576604343913907 22.008916322590377 0 0 -1
68 1 17.292113979711768 14.148336040108829 1.5727151229709164 0 0 0
69 1 18.864271027164364 12.576614892665095 22.009181221147045 0 0 -1
70 1 20.436747007545456 14.14845542851016 1.5724540436824619 0 0 0
71 1 22.009337733002475 15.720429415715897 22.009337733002475 -1 0 -1
72 1 1.5723900250697334 17.292388886855292 1.5723900250697336 0 0 0
73 1 3.1449560096087312 15.720306587857163 22.009295009472442 0 0 -1
74 1 4.7173126573989865 17.292071444433123 1.5726602423051075 0 0 0
75 1 6.289453546378128 15.72017548389395 22.009075835492688 0 0 -1
76 1 7.8612743613348615 17.292047106709276 1.5727329524952327 0 0 0
77 1 9.433039450650899 15.720266607981117 22.00900017186104 0 0 -1
78 1 11.00487134563288 17.29199964413575 1.5727085512996997 0 0 0
79 1 12.576607674668429 15.720116416354362 22.00891632008631 0 0 -1
80 1 14.14833935997066 17.292110640755574 1.5727151312098318 0 0 0
81 1 15.720557064173105 15.720553724447353 22.0091041099946 0 0 -1
82 1 17.292367801183907 17.29236448541874 1.5726306091806779 0 0 0
83 1 18.864369709770372 15.7203030658944 22.009166721555893 0 0 -1
84 1 20.436831903139062 17.292414941808943 1.5724053785371523 0 0 0
85 1 22.009348257717555 18.864652686396703 22.009348257717555 -1 0 -1
86 1 1.5723131568263484 20.436799702095207 1.5723131568263478 0 0 0
87 1 3.144828569390612 18.864458877887337 22.00933324174691 0 0 -1
88 1 4.7170002815590255 20.43661512273523 1.5723363615075652 0 0 0
89 1 6.289289686076756 18.8642393612831 22.009115801867196 0 0 -1
90 1 7.861047710194887 20.436609985112845 1.5723950917378324 0 0 0
91 1 9.43306681534846 18.864219145033257 22.00913217007034 0 0 -1
92 1 11.004761256425013 20.436683720642762 1.5724213175551731 0 0 0
93 1 12.576618197374474 18.86426768358741 22.00918122670869 0 0 -1
94 1 14.148458711048187 20.43674365406022 1.5724540446122393 0 0 0
95 1 15.720306368795653 18.86436637847399 22.009166729630284 0 0 -1
96 1 17.29241822489515 20.436828583952135 1.5724053768997504 0 0 0
97 1 18.864478072780518 18.864474772936536 22.00919797944821 0 0 -1
98 1 20.436829530478946 20.436826242861514 1.5723514502200227 0 0 0
99 1 22.009230942956975 22.009227658452097 3.144647660641957 -1 -1 0
100 1 1.5721858630879124 1.5721825704790824 4.716800758075852 0 0 0
101 1 3.1447264427043606 22.009090768306258 3.144726442704361 0 -1 0
102 1 4.71706326496157 1.5722375665716757 4.717063264961569 0 0 0
103 1 6.289045110101876 22.009068814819752 3.1448085097551286 0 -1 0
104 1 7.861169159643229 1.572353292393591 4.7172657718421425 0 0 0
105 1 9.432907806290352 22.009141314063523 3.1449098322190863 0 -1 0
106 1 11.004762596265087 1.5724618532924486 4.717396632071529 0 0 0
107 1 12.576560120885722 22.009232890197172 3.1449557387365417 0 -1 0
108 1 14.148258859894323 1.572606020094466 4.717416767432881 0 0 0
109 1 15.720309868919422 22.009291675353005 3.1449560190198538 0 -1 0
110 1 17.29207472869847 1.572656896199947 4.717312657156619 0 0 0
111 1 18.864462155679774 22.009329932942116 3.144828574314972 0 -1 0
112 1 20.436618416303222 1.5723330531556108 4.717000280098313 0 0 0
113 1 22.009094055362574 3.144723150798004 3.144726442772856 -1 0 0
114 1 1.5722408792931255 4.71705996992355 4.717063260279326 0 0 0
115 1 3.1448055181073933 3.1448022333259074 3.1448055181073915 0 0 0
116 1 4.717981010058629 4.717977705878273 4.717981010058628 0 0 0
117 1 6.28912018484413 3.1448453997701096 3.144848710125792 0 0 0
118 1 7.8616869536051075 4.717994626077837 4.717997956935082 0 0 0
119 1 9.432970430121603 3.1450259900942066 3.1450293275688566 0 0 0
120 1 11.004879039038437 4.718279412759553 4.7182827608511015 0 0 0
121 1 12.576474441603581 3.1451163586337945 3.145119707654417 0 0 0
122 1 14.14772864303252 4.7183905308184695 4.71839388792404 0 0 0
123 1 15.720096318221168 3.1451547417862638 3.1451580857452317 0 0 0
124 1 17.290850314467423 4.71856910530164 4.718572437844804 0 0 0
125 1 18.864100551083755 3.145084274534533 3.145087584855246 0 0 0
126 1 20.43603167244132 4.7174625569971855 4.717465866793246 0 0 0
127 1 22.009072131365354 6.289041826394293 3.1448085049488212 -1 0 0
128 1 1.5723566254546373 7.861165864986522 4.717265768860847 0 0 0
129 1 3.1448487071950635 6.289116891949245 3.144848707195063 0 0 0
130 1 4.717997962253761 7.861683650625383 4.71799796225376 0 0 0
131 1 6.289501479881293 6.2894981680672934 3.1454856658534296 0 0 0
132 1 7.861864502288398 7.8618611687388595 4.719368570981239 0 0 0
133 1 9.433414170790186 6.289957424967468 3.1459240989723884 0 0 0
134 1 11.005267820822048 7.863737093618926 4.721068063680906 0 0 0
135 1 12.576282450072181 6.290083034816811 3.14612738451496 0 0 0
136 1 14.147299947676059 7.862695530736297 4.720733236948591 0 0 0
137 1 15.719610566590053 6.289950310035703 3.1461678557126773 0 0 0
138 1 17.290674393659028 7.862271261064165 4.719181315936981 0 0 0
139 1 18.863887750464663 6.289486534100039 3.1453920775556528 0 0 0
140 1 20.43600925882779 7.8613875417351045 4.717617939147855 0 0 0
141 1 22.00914465121747 9.432904516122532 3.144909824417438 -1 0 0
142 1 1.572465225269544 11.004759307005592 4.717396627700843 0 0 0
143 1 3.1450293317298823 9.432967153785352 3.1450293317298823 0 0 0
144 1 4.718282758522333 11.004875727724734 4.718282758522332 0 0 0
145 1 6.289960763953254 9.43341086127295 3.145924099483919 0 0 0
146 1 7.863740457203847 11.005264487595849 4.721068068417361 0 0 0
147 1 9.43257043942401 9.432567100788592 3.14536311318084 0 0 0
148 1 11.004816199563638 11.004812838775408 4.713212098748283 0 0 0
149 1 12.577058412493228 9.432902442136253 3.1459412762746957 0 0 0
150 1 14.146801883950845 11.004745967093262 4.721134454240378 0 0 0
151 1 15.71966526132471 9.4333567514687 3.146474161570577 0 0 0
152 1 17.290592987541547 11.005203986463359 4.7193525058850225 0 0 0
153 1 18.863869877261738 9.433178579293656 3.145491764062751 0 0 0
154 1 20.436121789564325 11.00485254664476 4.71769889451114 0 0 0
155 1 22.00923624397915 12.576556844500278 3.144955727667056 -1 0 0
156 1 1.5726093789303623 14.148255568336001 4.71741676824859 0 0 0
157 1 3.1451197108008486 12.57647114925408 3.1451197108008473 0 0 0
158 1 4.718393888052578 14.147725343715168 4.718393888052578 0 0 0
159 1 6.290086388639703 12.576279139691172 3.1461273804246837 0 0 0
160 1 7.862698895045579 14.147296603227003 4.720733251598506 0 0 0
161 1 9.432905794178994 12.577055068412125 3.145941283095533 0 0 0
162 1 11.004749323619247 14.146798525318701 4.721134456739903 0 0 0
163 1 12.577208382264311 12.577205027900183 3.1452398393505043 0 0 0
164 1 14.148472548027977 14.148469182404133 4.719729565633672 0 0 0
165 1 15.719612725911626 12.576376599123058 3.146532097896383 0 0 0
166 1 17.290851367812433 14.147619276680492 4.719198960702267 0 0 0
167 1 18.863990546956188 12.57653903600374 3.145460217895904 0 0 0
168 1 20.43623173090102 14.148217227092166 4.717694094022486 0 0 0
169 1 22.009295009472442 15.720306587857163 3.144956009608732 -1 0 0
170 1 1.572660242305107 17.292071444433127 4.7173126573989865 0 0 0
171 1 3.145158092312891 15.720093042718156 3.14515809231289 0 0 0
172 1 4.718572436613525 17.290846997057656 4.718572436613525 0 0 0
173 1 6.289953643077977 15.71960725051287 3.1461678585536523 0 0 0
174 1 7.862274610097089 17.29067105331963 4.719181330205702 0 0 0
175 1 9.433360100691928 15.71966192172574 3.1464741754868344 0 0 0
176 1 11.00520731997206 17.290589611556783 4.719352512356493 0 0 0
177 1 12.576379933672673 15.71960937225937 3.1465321030607694 0 0 0
178 1 14.147622609761326 17.29084800787826 4.719198968645854 0 0 0
179 1 15.72016437183925 15.720161032879254 3.146044018963468 0 0 0
180 1 17.291046125711855 17.29104278923159 4.71898612517149 0 0 0
181 1 18.86413508030933 15.720130286198234 3.1453930913607535 0 0 0
182 1 20.436414249707717 17.29208068518247 4.717477417309921 0 0 0
183 1 22.00933324174691 18.864458877887337 3.1448285693906115 -1 0 0
184 1 1.5723363615075667 20.43661512273523 4.717000281559025 0 0 0
185 1 3.1450875876855315 18.86409726367096 3.145087587685533 0 0 0
186 1 4.717465867967681 20.43602837249485 4.7174658679676815 0 0 0
187 1 6.2894898520222435 18.863884440923737 3.1453920792778076 0 0 0
188 1 7.861390851673658 20.436005914748836 4.717617948364402 0 0 0
189 1 9.43318188707301 18.863866528654025 3.145491771066826 0 0 0
190 1 11.004855853167761 20.436118440892837 4.717698903958015 0 0 0
191 1 12.576542347549099 18.863987191159605 3.1454602190207486 0 0 0
192 1 14.148220525346298 20.436228369459226 4.717694104267047 0 0 0
193 1 15.720133585619168 18.86413173686802 3.145393091311618 0 0 0
194 1 17.292083985799373 20.43641092132563 4.717477425672529 0 0 0
195 1 18.86421730769545 18.86421399926604 3.1452670708657937 0 0 0
196 1 20.436570511261625 20.436567210253298 4.7172250310718065 0 0 0
197 1 22.009216264367684 22.00921295438734 6.28895361284574 -1 -1 0
198 1 1.57226974674258 1.5722664273949973 7.860928046142913 0 0 0
199 1 3.1448085097551277 22.009068814819752 6.289045110101876 0 -1 0
200 1 4.717265771842143 1.572353292393591 7.86116915964323 0 0 0
201 1 6.289280656795693 22.00865850545893 6.289280656795693 0 -1 0
202 1 7.86101629661996 1.5722456998748473 7.861016296619961 0 0 0
203 1 9.433159101530785 22.008735187703284 6.289589785498772 0 -1 0
204 1 11.004879617458782 1.572637331651089 7.861520209818788 0 0 0
205 1 12.576527543896425 22.008937242809367 6.289648315037467 0 -1 0
206 1 14.148418195594521 1.5727286784544299 7.861299175979762 0 0 0
207 1 15.720178795391808 22.00907247321325 6.289453549341637 0 -1 0
208 1 17.29205041751652 1.5727295922113775 7.861274367386298 0 0 0
209 1 18.86424266309557 22.009112463963504 6.28928968599388 0 -1 0
210 1 20.436613311439633 1.5723917592695502 7.861047714750802 0 0 0
211 1 22.009072125307405 3.1448051936704524 6.2890451119212845 -1 0 0
212 1 1.5723566317323205 4.717262444046093 7.861169158220215 0 0 0
213 1 3.144848710125791 3.14484539977011 6.28912018484413 0 0 0
214 1 4.717997956935083 4.717994626077837 7.8616869536051075 0 0 0
215 1 6.289501483090155 3.1454823311081763 6.289501483090155 0 0 0
216 1 7.861864500662948 4.7193652052564 7.861864500662947 0 0 0
217 1 9.43341416623251 3.1459207394555957 6.289960770757001 0 0 0
218 1 11.005267822076522 4.721064690726353 7.86374044709396 0 0 0
219 1 12.576282453548588 3.146124019159082 6.2900863952366075 0 0 0
220 1 14.147299936853779 4.72072985895096 7.86269888703892 0 0 0
221 1 15.719610557380387 3.1461644954437755 6.289953653612808 0 0 0
222 1 17.290674396396025 4.719177962223484 7.86227460010568 0 0 0
223 1 18.86388775274473 3.1453887510339884 6.2894898523809495 0 0 0
224 1 20.436009248947098 4.717614604861261 7.861390846400674 0 0 0
225 1 22.008661844013155 6.289277349817162 6.289280654366704 -1 0 0
226 1 1.5722490474596702 7.861012972620421 7.8610162933841154 0 0 0
227 1 3.1454856658534296 6.289498168067293 6.289501479881293 0 0 0
228 1 4.719368570981239 7.861861168738859 7.8618645022884 0 0 0
229 1 6.292747703548861 6.292744376859751 6.29274770354886 0 0 0
230 1 7.871856118921751 7.8718527648875165 7.871856118921752 0 0 0
231 1 9.43495902190903 6.292553124198009 6.2925564741264655 0 0 0
232 1 11.00682408857062 7.874013630384594 7.874017005230055 0 0 0
233 1 12.575301650277966 6.292995718349783 6.2929990857226485 0 0 0
234 1 14.1360547256912 7.875278170748512 7.8752815433312735 0 0 0
235 1 15.715887415839035 6.293999420832366 6.294002773278828 0 0 0
236 1 17.285824306824633 7.865716098536074 7.865719457428082 0 0 0
237 1 18.862043594838546 6.29089008338438 6.290893419071235 0 0 0
238 1 20.434994550272858 7.861654328104645 7.86165765844786 0 0 0
239 1 22.008738550308138 9.433155780262714 6.289589786421718 -1 0 0
240 1 1.5726407139817613 11.004876299555274 7.861520206119294 0 0 0
241 1 3.145924099483917 9.43341086127295 6.289960763953254 0 0 0
242 1 4.7210680684173605 11.00526448759585 7.863740457203847 0 0 0
243 1 6.292556480706728 9.43495568679187 6.292556480706728 0 0 0
244 1 7.874017005054805 11.006820733435074 7.874017005054804 0 0 0
245 1 9.432297074143282 9.432293714100933 6.2947559923572465 0 0 0
246 1 11.00529712215472 11.005293724214503 7.826014340226461 0 0 0
247 1 12.577817278044858 9.434388333872695 6.297637753323083 0 0 0
248 1 14.139123236275491 11.004365901414996 7.877819197307717 0 0 0
249 1 15.716556031645283 9.435386298111535 6.294552358850647 0 0 0
250 1 17.285933204949696 11.006057874148695 7.866118105524008 0 0 0
251 1 18.862102533407548 9.433921113312191 6.290966240564245 0 0 0
252 1 20.434825888015666 11.005132505409483 7.862099586766912 0 0 0
253 1 22.008940622678622 12.576524245313681 6.2896483137677555 -1 0 0
254 1 1.5727320451775417 14.148414870055856 7.8612991650267725 0 0 0
255 1 3.1461273804246837 12.576279139691172 6.290086388639705 0 0 0
256 1 4.720733251598505 14.147296603227003 7.862698895045579 0 0 0
257 1 6.292999102056258 12.57529832042797 6.292999102056259 0 0 0
258 1 7.875281549566259 14.136051345095538 7.87528154956626 0 0 0
259 1 9.434391698096395 12.577813910735856 6.29763775620011 0 0 0
260 1 11.004369300243631 14.139119844908869 7.877819224046303 0 0 0
261 1 12.578647053056345 12.578643662181076 6.291410340266184 0 0 0
262 1 14.14112088566842 14.141117490134905 7.875130813807174 0 0 0
263 1 15.715510155067143 12.575311451870418 6.295313360650732 0 0 0
264 1 17.287676100652163 14.146443742084294 7.8645244260111555 0 0 0
265 1 18.862266665209635 12.576216740103844 6.291000637131927 0 0 0
266 1 20.435268690784774 14.148127120967674 7.861875828427886 0 0 0
267 1 22.009075835492688 15.72017548389395 6.289453546378128 -1 0 0
268 1 1.572732952495233 17.292047106709276 7.861274361334861 0 0 0
269 1 3.1461678585536523 15.71960725051287 6.289953643077979 0 0 0
270 1 4.719181330205701 17.29067105331963 7.8622746100970895 0 0 0
271 1 6.294002783660729 15.715884072083437 6.294002783660728 0 0 0
272 1 7.865719463653324 17.285820943104067 7.865719463653324 0 0 0
273 1 9.435389666846927 15.716552657450697 6.294552364218544 0 0 0
274 1 11.006061248084418 17.285929798208638 7.866118126415419 0 0 0
275 1 12.575314816580299 15.715506774309652 6.295313377114043 0 0 0
276 1 14.146447095487925 17.287672713292803 7.864524427012361 0 0 0
277 1 15.716781523923022 15.716778159075709 6.294465756238805 0 0 0
278 1 17.288173604707985 17.288170240935727 7.865025252773048 0 0 0
279 1 18.862807879448788 15.71943714981007 6.2905697994418555 0 0 0
280 1 20.435708793908603 17.2917114092561 7.861715000119974 0 0 0
281 1 22.0091158018672 18.864239361283097 6.289289686076756 -1 0 0
282 1 1.5723950917378324 20.436609985112845 7.861047710194888 0 0 0
283 1 3.1453920792778076 18.863884440923737 6.2894898520222435 0 0 0
284 1 4.717617948364402 20.436005914748836 7.861390851673658 0 0 0
285 1 6.290893435662216 18.862040258535202 6.290893435662216 0 0 0
286 1 7.86165766148842 20.434991168373113 7.861657661488419 0 0 0
287 1 9.433924438912506 18.862099160579366 6.29096625303627 0 0 0
288 1 11.00513584426883 20.434822503237612 7.862099598029727 0 0 0
289 1 12.576220082384562 18.862263283195933 6.291000655629739 0 0 0
290 1 14.148130448598016 20.435265294404395 7.861875834966131 0 0 0
291 1 15.7194404706958 18.862804518607767 6.290569807167179 0 0 0
292 1 17.29171473687396 20.435705436619354 7.861715004022138 0 0 0
293 1 18.863258570349338 18.863255241013107 6.290358753700716 0 0 0
294 1 20.436546683400078 20.4365433513872 7.861184259908341 0 0 0
295 1 22.00924931709209 22.009245981725872 9.432868414530823 -1 -1 0
296 1 1.5723380622391905 1.5723347144403272 11.004704936401073 0 0 0
297 1 3.1449098322190854 22.009141314063523 9.43290780629035 0 -1 0
298 1 4.717396632071528 1.5724618532924506 11.004762596265085 0 0 0
299 1 6.289589785498772 22.008735187703287 9.433159101530784 0 -1 0
300 1 7.861520209818788 1.5726373316510889 11.00487961745878 0 0 0
301 1 9.432875026456749 22.00844836310972 9.432875026456749 0 -1 0
302 1 11.0047710975265 1.571676781044279 11.0047710975265 0 0 0
303 1 12.576751612839775 22.00851050811509 9.433163889895782 0 -1 0
304 1 14.148446131343702 1.572928155880573 11.004767071867935 0 0 0
305 1 15.720269946021254 22.00899679149967 9.43303946075237 0 -1 0
306 1 17.292002985250303 1.5727051676235804 11.004871349447384 0 0 0
307 1 18.864222479465216 22.009128812095653 9.433066822063102 0 -1 0
308 1 20.436687063664564 1.5724179597133903 11.004761254536092 0 0 0
309 1 22.009144652637538 3.1449064853722457 9.432907800506301 -1 0 0
310 1 1.5724652195214461 4.7173932839142125 11.004762598425621 0 0 0
311 1 3.1450293275688566 3.1450259900942075 9.432970430121603 0 0 0
312 1 4.7182827608511015 4.718279412759553 11.004879039038437 0 0 0
313 1 6.289960770757001 3.145920739455595 9.43341416623251 0 0 0
314 1 7.86374044709396 4.721064690726352 11.005267822076522 0 0 0
315 1 9.432570429373882 3.145359730290466 9.432570429373882 0 0 0
316 1 11.004816198656957 4.713208723104702 11.004816198656957 0 0 0
317 1 12.57705841320977 3.1459378941102387 9.43290578853893 0 0 0
318 1 14.146801872097244 4.721131066955064 11.004749323879295 0 0 0
319 1 15.719665252230495 3.146470784274383 9.433360092268853 0 0 0
320 1 17.290592983620982 4.7193491400757575 11.005207324349373 0 0 0
321 1 18.863869872482944 3.145488411551887 9.433181887618565 0 0 0
322 1 20.436121787728293 4.71769554778975 11.004855853251405 0 0 0
323 1 22.008738549419647 6.28958645170667 9.433159096541525 -1 0 0
324 1 1.5726407080425582 7.861516860859345 11.004879619713845 0 0 0
325 1 3.14592409897239 6.289957424967468 9.433414170790185 0 0 0
326 1 4.721068063680906 7.863737093618927 11.005267820822047 0 0 0
327 1 6.292556474126465 6.29255312419801 9.43495902190903 0 0 0
328 1 7.874017005230055 7.874013630384594 11.00682408857062 0 0 0
329 1 9.43229707419695 6.294752624600592 9.43229707419695 0 0 0
330 1 11.005297102998583 7.826010942707337 11.005297102998583 0 0 0
331 1 12.577817268314048 6.297634366153872 9.434391700588108 0 0 0
332 1 14.139123242271113 7.877815812220531 11.00436927841691 0 0 0
333 1 15.71655602941617 6.294548992006886 9.435389661947038 0 0 0
334 1 17.28593319129789 7.866114731969706 11.006061231368703 0 0 0
335 1 18.86210252725564 6.290962884813873 9.433924444106749 0 0 0
336 1 20.434825892038063 7.8620962346864465 11.00513583863737 0 0 0
337 1 22.008451749171332 9.432871674144836 9.43287501427022 -1 0 0
338 1 1.571680189952512 11.00476775433317 11.00477109920034 0 0 0
339 1 3.1453631131808404 9.432567100788592 9.432570439424008 0 0 0
340 1 4.713212098748283 11.004812838775408 11.004816199563638 0 0 0
341 1 6.294755992357246 9.432293714100933 9.432297074143284 0 0 0
342 1 7.826014340226461 11.005293724214503 11.005297122154722 0 0 0
343 1 9.459312852924615 9.459309461959062 9.459312852924615 0 0 0
344 1 20.436708389176534 20.43670508860956 20.436708389176534 0 0 0
345 1 12.548594109278497 9.472903960921263 9.47290734844306 0 0 0
346 1 14.162068649487637 11.022157625705699 11.022161030604053 0 0 0
347 1 15.702983810642959 9.442978706468093 9.442982092210778 0 0 0
348 1 17.287397211379535 11.003549670311715 11.00355304147508 0 0 0
349 1 18.860662380565202 9.433630212223335 9.433633561417086 0 0 0
350 1 20.43561260629818 11.004471538282614 11.004474890993754 0 0 0
351 1 22.00851390416891 12.576748286047884 9.43316387806766 -1 0 0
352 1 1.5729315491202966 14.148442788582344 11.004767072830457 0 0 0
353 1 3.145941283095533 12.577055068412124 9.432905794178993 0 0 0
354 1 4.721134456739905 14.146798525318701 11.004749323619247 0 0 0
355 1 6.297637756200109 12.577813910735856 9.434391698096396 0 0 0
356 1 7.877819224046302 14.139119844908869 11.004369300243631 0 0 0
357 1 9.472907365161577 12.548590718949947 9.472907365161575 0 0 0
358 1 11.022161036032868 14.162065213545635 11.02216103603287 0 0 0
359 1 12.56482554787592 12.564822135471578 9.408897013579613 0 0 0
360 1 14.113469965653222 14.113466537991602 11.028209157947698 0 0 0
361 1 15.704653036524624 12.576657365749037 9.441299413861449 0 0 0
362 1 17.284173464065766 14.147447380291956 11.003612535647406 0 0 0
363 1 18.86021336519459 12.576714027012297 9.434893629489098 0 0 0
364 1 20.435573026775486 14.148664216872476 11.004489111818692 0 0 0
365 1 22.00900017186104 15.720266607981118 9.433039450650899 -1 0 0
366 1 1.572708551299699 17.29199964413575 11.00487134563288 0 0 0
367 1 3.146474175486833 15.719661921725741 9.433360100691926 0 0 0
368 1 4.719352512356493 17.290589611556783 11.005207319972058 0 0 0
369 1 6.294552364218545 15.716552657450698 9.435389666846929 0 0 0
370 1 7.866118126415419 17.285929798208638 11.006061248084418 0 0 0
371 1 9.442982120442496 15.702980401054873 9.442982120442498 0 0 0
372 1 11.003553048487973 17.287393785357985 11.003553048487973 0 0 0
373 1 12.576660743544378 15.70464961595847 9.44129941601602 0 0 0
374 1 14.14745076716494 17.28417006327223 11.003612558720171 0 0 0
375 1 15.707784970270176 15.707781566065501 9.444045281121511 0 0 0
376 1 17.289118148963034 17.28911476933716 11.005934625941023 0 0 0
377 1 18.86126708638078 15.719078314133565 9.434047495354687 0 0 0
378 1 20.43566992550423 17.291617289756598 11.005110166030924 0 0 0
379 1 22.009132170070345 18.864219145033257 9.43306681534846 -1 0 0
380 1 1.5724213175551733 20.436683720642762 11.004761256425013 0 0 0
381 1 3.145491771066826 18.86386652865402 9.433181887073012 0 0 0
382 1 4.717698903958015 20.436118440892837 11.004855853167763 0 0 0
383 1 6.290966253036269 18.862099160579366 9.433924438912506 0 0 0
384 1 7.862099598029727 20.434822503237612 11.005135844268832 0 0 0
385 1 9.433633573565798 18.860658982278146 9.433633573565798 0 0 0
386 1 11.004474889837121 20.435609213089393 11.004474889837123 0 0 0
387 1 12.576717387832536 18.860209959586776 9.434893632255498 0 0 0
388 1 14.14866757309893 20.435569620480347 11.00448911861662 0 0 0
389 1 15.719081666124751 18.861263705423443 9.434047504245745 0 0 0
390 1 17.291620639175164 20.43566655149728 11.005110168294218 0 0 0
391 1 18.86344424907972 18.863440892771475 9.43352995513924 0 0 0
392 1 20.43655927572239 20.43655592309026 11.004848062931334 0 0 0
393 1 22.009306798391265 22.00930344624631 12.576597694598764 -1 -1 0
394 1 1.5723933353418 1.5723899931090255 14.148430344474647 0 0 0
395 1 3.1449557387365403 22.009232890197172 12.576560120885723 0 -1 0
396 1 4.717416767432881 1.5726060200944656 14.148258859894323 0 0 0
397 1 6.289648315037467 22.008937242809367 12.576527543896427 0 -1 0
398 1 7.861299175979763 1.5727286784544303 14.148418195594521 0 0 0
399 1 9.433163889895782 22.00851050811509 12.576751612839773 0 -1 0
400 1 11.004767071867935 1.5729281558805732 14.148446131343702 0 0 0
401 1 12.576795544501492 22.009512394499545 12.576795544501492 0 -1 0
402 1 14.148778249290414 1.5727269080035047 14.148778249290414 0 0 0
403 1 15.720119768241332 22.008912931245376 12.576607677345649 0 -1 0
404 1 17.29211397796324 1.5727117551246308 14.148339359299905 0 0 0
405 1 18.864271028548295 22.009177857604858 12.576618197543164 0 -1 0
406 1 20.436747002866134 1.5724506919340089 14.148458715033883 0 0 0
407 1 22.009236244998156 3.1449523836350783 12.576560128003372 -1 0 0
408 1 1.5726093757023207 4.717413413079898 14.148258856203247 0 0 0
409 1 3.145119707654417 3.145116358633794 12.57647444160358 0 0 0
410 1 4.718393887924039 4.71839053081847 14.147728643032519 0 0 0
411 1 6.2900863952366075 3.146124019159083 12.576282453548586 0 0 0
412 1 7.86269888703892 4.72072985895096 14.147299936853779 0 0 0
413 1 9.43290578853893 3.1459378941102396 12.57705841320977 0 0 0
414 1 11.004749323879295 4.721131066955065 14.146801872097244 0 0 0
415 1 12.577208381616515 3.145236451850791 12.577208381616515 0 0 0
416 1 14.14847253963088 4.7197261704634 14.14847253963088 0 0 0
417 1 15.719612720007886 3.1465287165212388 12.5763799420652 0 0 0
418 1 17.29085136457212 4.7191955918344615 14.147622605832163 0 0 0
419 1 18.86399054076034 3.145456856407994 12.576542347468184 0 0 0
420 1 20.436231727651915 4.717690742396374 14.148220527817646 0 0 0
421 1 22.00894061627432 6.289644963107745 12.576527547291692 -1 0 0
422 1 1.5727320448634947 7.861295827189909 14.148418198507816 0 0 0
423 1 3.1461273845149593 6.29008303481681 12.576282450072181 0 0 0
424 1 4.7207332369485915 7.862695530736297 14.14729994767606 0 0 0
425 1 6.292999085722649 6.292995718349783 12.575301650277966 0 0 0
426 1 7.8752815433312735 7.875278170748513 14.1360547256912 0 0 0
427 1 9.434391700588108 6.297634366153872 12.577817268314048 0 0 0
428 1 11.004369278416911 7.877815812220531 14.139123242271113 0 0 0
429 1 12.578647033549073 6.291406932565607 12.578647033549073 0 0 0
430 1 14.141120883833766 7.875127427546811 14.141120883833768 0 0 0
431 1 15.715510154657494 6.295309983210198 12.5753148074057 0 0 0
432 1 17.287676094652184 7.864521051750491 14.146447100884602 0 0 0
433 1 18.862266658259607 6.290997272993505 12.576220072607457 0 0 0
434 1 20.435268684981814 7.861872482168648 14.148130454302091 0 0 0
435 1 22.008513901264962 9.433160529242814 12.576751621926682 -1 0 0
436 1 1.5729315481497652 11.004763725878167 14.148446134242725 0 0 0
437 1 3.1459412762746957 9.432902442136253 12.577058412493228 0 0 0
438 1 4.721134454240378 11.004745967093262 14.146801883950845 0 0 0
439 1 6.297637753323083 9.434388333872697 12.57781727804486 0 0 0
440 1 7.877819197307717 11.004365901414994 14.139123236275493 0 0 0
441 1 9.47290734844306 9.472903960921263 12.548594109278497 0 0 0