LAMMPS data file via write_data, version 2 Aug 2023, timestep = 31, units = metal

685 atoms
3 atom types

0 22.009546999999998 xlo xhi
0 22.009546999999998 ylo yhi
0 22.009546999999998 zlo zhi

Masses

1 183.84
2 1.008
3 4.0026

Atoms # atomic

1 1 0.0005438407306512249 0.0005457169500635408 0.0005438407306509943 0 0 0
2 1 1.573283928341384 1.573286724104482 1.5732839283413849 0 0 0
3 1 3.14543192590294 0.0007434728661070278 0.0007427180465133286 0 0 0
4 1 4.717897676707935 1.5735116223486372 1.5735118194881703 0 0 0
5 1 6.289843547825426 0.000740499728665182 0.000743114557826154 0 0 0
6 1 7.862017688803424 1.5735520630156246 1.5735560917067808 0 0 0
7 1 9.433824597664875 0.0005650845507515109 0.0005701877040556294 0 0 0
8 1 11.005825211032137 1.573395255850651 1.5734009909927957 0 0 0
9 1 12.57758030114116 0.000349973273054194 0.0003552286506456615 0 0 0
10 1 14.149578445355713 1.573189118887527 1.5731937643760967 0 0 0
11 1 15.72137354194522 0.00022360779820021582 0.0002268529969714992 0 0 0
12 1 17.29357007808519 1.573049959473605 1.5730513098976857 0 0 0
13 1 18.865494283720487 0.00029721457887994286 0.0002974250545063872 0 0 0
14 1 20.437957579826495 1.573075522424573 1.5730733855276517 0 0 0
15 1 0.0007415278234565837 3.145435133274039 0.0007415278234559554 0 0 0
16 1 1.5735112942918055 4.717898980052658 1.5735112942918061 0 0 0
17 1 3.1456900251172666 3.145691296303548 0.0010255738928463345 0 0 0
18 1 4.718346374390054 4.718344427106682 1.5742065289750524 0 0 0
19 1 6.290030913589477 3.1457818665455686 0.0012499406226272076 0 0 0
20 1 7.8624348792232155 4.718542748957833 1.5744652234496181 0 0 0
21 1 9.433951127660187 3.1456832066294615 0.0012019824969285802 0 0 0
22 1 11.005971446689006 4.718426188106647 1.5742817112379548 0 0 0
23 1 12.577675755264579 3.1454804364894398 0.0009996828354440646 0 0 0
24 1 14.149499681147867 4.718180960353858 1.573879732154808 0 0 0
25 1 15.721475855461925 3.145359059566815 0.0007358863247656843 0 0 0
26 1 17.293435757431592 4.717931226709001 1.573475946703707 0 0 0
27 1 18.865616946439484 3.1453474514337945 0.0006347710553905951 0 0 0
28 1 20.438022081511374 4.717772720728727 1.5731640615218379 0 0 0
29 1 0.0007416582337884224 6.289844076092145 0.0007416582337871703 0 0 0
30 1 1.573555623333662 7.862015263563186 1.573555623333662 0 0 0
31 1 3.145784490144213 6.290029314894052 0.0012489348385315115 0 0 0
32 1 4.71854765661748 7.862430496692345 1.5744645833839008 0 0 0
33 1 6.290151649840833 6.290146929836139 0.0015873128925992287 0 0 0
34 1 7.862307206687503 7.862301492170373 1.5750124222708284 0 0 0
35 1 9.43415091108233 6.29027592001496 0.0015655306261385454 0 0 0
36 1 11.006082287031433 7.862577014343104 1.5748926065579947 0 0 0
37 1 12.57765229054255 6.290139880202782 0.001185347507809903 0 0 0
38 1 14.149617782396001 7.86211475590511 1.5739356207350013 0 0 0
39 1 15.721372529207276 6.28992467941975 0.0006442023251132911 0 0 0
40 1 17.29339233834101 7.861986930943941 1.5731251306505885 0 0 0
41 1 18.865411203000015 6.28994765498618 0.0003049535985213043 0 0 0
42 1 20.437958621043755 7.861923994619174 1.5730418109005015 0 0 0
43 1 0.0005696062281653093 9.433821450973308 0.0005696062281648978 0 0 0
44 1 1.5734010494702027 11.005820044770545 1.5734010494702035 0 0 0
45 1 3.1456890552437295 9.43394668036395 0.001200983212037605 0 0 0
46 1 4.7184324761993945 11.005966051810216 1.5742809529599904 0 0 0
47 1 6.290282366845804 9.434145416510361 0.0015647009284791148 0 0 0
48 1 7.862582755318566 11.006077193522211 1.574891833159668 0 0 0
49 1 9.433619369753405 9.433613708071633 0.0016295767282114937 0 0 0
50 1 11.00579526627855 11.005790680781242 1.5735310424126812 0 0 0
51 1 12.577689478862132 9.433748425015027 0.000606776279073409 0 0 0
52 1 14.149535818970522 11.00561881663723 1.5731594327045408 0 0 0
53 1 15.72119616019987 9.433705467858077 22.00937032333094 0 0 -1
54 1 17.293143359870818 11.005704523923892 1.5725790914459137 0 0 0
55 1 18.865123057263368 9.433879669049482 22.00943179977019 0 0 -1
56 1 20.437805247052168 11.005719815938301 1.5727619342379957 0 0 0
57 1 0.00035595953727583595 12.57757441445252 0.000355959537278887 0 0 0
58 1 1.573194551349157 14.149572826517806 1.573194551349158 0 0 0
59 1 3.1454867582338846 12.577670335449547 0.0009998001230989528 0 0 0
60 1 4.71818571575622 14.149495341295042 1.5738794731372976 0 0 0
61 1 6.290145584484469 12.577647607504757 0.001184690218512237 0 0 0
62 1 7.8621189166225145 14.149614213810482 1.5739349203481245 0 0 0
63 1 9.433753253992668 12.577685089623238 0.0006064231800318072 0 0 0
64 1 11.005622970522042 14.149531905976813 1.573159151681441 0 0 0
65 1 12.577502540966144 12.577498240936253 0.00024146945803548607 0 0 0
66 1 14.149680675267321 14.149676102666417 1.5721427189737829 0 0 0
67 1 15.720719955534733 12.577243112127233 22.008417442109156 0 0 -1
68 1 17.29301383336722 14.149197657550117 1.57220829734001 0 0 0
69 1 18.86486650623955 12.577404346569878 22.009030484213273 0 0 -1
70 1 20.43761633974302 14.149439633569585 1.572564403163713 0 0 0
71 1 0.00022831361445919247 15.72136815096193 0.0002283136144583426 0 0 0
72 1 1.5730520900928637 17.293567098337277 1.5730520900928628 0 0 0
73 1 3.1453624197939583 15.72147215710157 0.0007370136723343055 0 0 0
74 1 4.717932477185245 17.293433923476485 1.573476168340929 0 0 0
75 1 6.289927697063805 15.721369714530706 0.000644443612222124 0 0 0
76 1 7.8619890975891025 17.293389906472576 1.5731248040279138 0 0 0
77 1 9.43370871848311 15.72119296335885 22.00937028921661 0 0 -1
78 1 11.005708588573407 17.29313953340057 1.5725785186464558 0 0 0
79 1 12.577247832283618 15.720715392003504 22.008417326274913 0 0 -1
80 1 14.149203176323578 17.293008581265628 1.5722077404967012 0 0 0
81 1 15.721024995963214 15.721019384698566 22.00831477368777 0 0 -1
82 1 17.293184146234204 17.29317853506668 1.5722090488658698 0 0 0
83 1 18.864783238224934 15.72092693523486 22.00887134658232 0 0 -1
84 1 20.437559102616948 17.293345227058545 1.5725482041680765 0 0 0
85 1 0.00029836843308902956 18.865492159706783 0.0002983684330887267 0 0 0
86 1 1.573073768149884 20.437958466279696 1.573073768149884 0 0 0
87 1 3.1453467179165213 18.865616391245293 0.0006362888142237837 0 0 0
88 1 4.717771128201477 20.43802234434297 1.5731645707117037 0 0 0
89 1 6.2899475615448255 18.86541019463995 0.00030615642925139466 0 0 0
90 1 7.861925304700399 20.437956398662305 1.5730418219435853 0 0 0
91 1 9.43388232422951 18.865119665053246 22.00943211209269 0 0 -1
92 1 11.005724418808661 20.437800610910134 1.5727611180135204 0 0 0
93 1 12.577409646019351 18.86486138897331 22.00902997858589 0 0 -1
94 1 14.149445733629845 20.4376109664663 1.5725632842095705 0 0 0
95 1 15.720933141233047 18.864777585513366 22.00887070826522 0 0 -1
96 1 17.293350032048473 20.43755512324102 1.5725475378241864 0 0 0
97 1 18.865011965923657 18.865007543602072 22.009152994704557 0 0 -1
98 1 20.43767812252938 20.437676825811685 1.572794838368604 0 0 0
99 1 0.0007427180465107299 0.0007434728661069781 3.1454319259029404 0 0 0
100 1 1.5735118194881699 1.573511622348638 4.717897676707935 0 0 0
101 1 3.145689591527394 0.0010265915829554327 3.145689591527395 0 0 0
102 1 4.71834563387465 1.5742053713873705 4.71834563387465 0 0 0
103 1 6.2900300114841 0.0012476169236728444 3.145784024997518 0 0 0
104 1 7.862433953124543 1.574461642058048 4.718546961864775 0 0 0
105 1 9.433950380373641 0.0011972663763654902 3.145688348337576 0 0 0
106 1 11.005971098029182 1.5742768524309467 4.718432002251523 0 0 0
107 1 12.577675947129727 0.0009948457867807097 3.145485774612741 0 0 0
108 1 14.14950040858975 1.5738755634313328 4.718185683478718 0 0 0
109 1 15.72147720562118 0.0007329797202259342 3.145361882649274 0 0 0
110 1 17.29343748898335 1.5734737987920238 4.717932909483489 0 0 0
111 1 18.8656187313121 0.0006347870127638393 3.145346566959343 0 0 0
112 1 20.438023716340286 1.5731638967873336 4.7177717022238195 0 0 0
113 1 0.001025573892845505 3.145691296303548 3.1456900251172675 0 0 0
114 1 1.5742065289750502 4.718344427106682 4.718346374390056 0 0 0
115 1 3.146246029555488 3.14624639590711 3.14624602955549 0 0 0
116 1 4.719991932600723 4.719989407508056 4.719991932600723 0 0 0
117 1 6.290553887994845 3.1465985914752697 3.1466011977993253 0 0 0
118 1 7.863604490731131 4.720375603999972 4.72037932331918 0 0 0
119 1 9.434290457448054 3.1466498928331372 3.1466549994517985 0 0 0
120 1 11.006389817464818 4.720255646171801 4.720260493628364 0 0 0
121 1 12.577726641923077 3.1463769335562928 3.1463824514470304 0 0 0
122 1 14.149119115250533 4.7196350340952336 4.71963944338811 0 0 0
123 1 15.72142056469292 3.1460106976705946 3.1460142064896197 0 0 0
124 1 17.292630854572415 4.719106624840812 4.719109654085198 0 0 0
125 1 18.865598934868117 3.145782044826204 3.1457826462101313 0 0 0
126 1 20.437987418751472 4.718123575467674 4.718125637955318 0 0 0
127 1 0.001248934838529412 6.290029314894052 3.145784490144214 0 0 0
128 1 1.5744645833839004 7.862430496692345 4.718547656617481 0 0 0
129 1 3.146601072288586 6.2905517536799715 3.1466010722885858 0 0 0
130 1 4.720379239537248 7.863600709763404 4.720379239537248 0 0 0
131 1 6.291349301809411 6.291345220574242 3.148039811201287 0 0 0
132 1 7.864587593155326 7.864583668767251 4.722973407407684 0 0 0
133 1 9.43498077614174 6.291714119740967 3.1484300773649854 0 0 0
134 1 11.00711901820667 7.865926406129262 4.72393658538942 0 0 0
135 1 12.577612279704818 6.291402639388773 3.147878796483905 0 0 0
136 1 14.148936011749008 7.863905766757886 4.721754391992183 0 0 0
137 1 15.721073580661624 6.290744131599479 3.146970323795415 0 0 0
138 1 17.292940531944527 7.862675673670824 4.71902542970458 0 0 0
139 1 18.865622519702974 6.290122162322844 3.145843513995449 0 0 0
140 1 20.43814561664653 7.8621625809808515 4.718069845526888 0 0 0
141 1 0.0012009832120377915 9.433946680363952 3.1456890552437304 0 0 0
142 1 1.5742809529599906 11.005966051810217 4.718432476199394 0 0 0
143 1 3.146654767135062 9.434285828832603 3.1466547671350624 0 0 0
144 1 4.720259965306976 11.006385359647973 4.720259965306976 0 0 0
145 1 6.291719253199316 9.434975890862976 3.148429506530902 0 0 0
146 1 7.865930216824073 11.007115343091403 4.723935973532064 0 0 0
147 1 9.434286813574511 9.434282100633137 3.1483402505341247 0 0 0
148 1 11.006565603320766 11.00656232295059 4.71644102902588 0 0 0
149 1 12.578357021212636 9.434266166647777 3.1476237405044065 0 0 0
150 1 14.14896888419855 11.005760766415884 4.720772653064356 0 0 0
151 1 15.721301891792407 9.43413339304261 3.1465157612730223 0 0 0
152 1 17.292747453072415 11.006060538779142 4.7188738387901035 0 0 0
153 1 18.86554288141659 9.434019353475694 3.145619239470985 0 0 0
154 1 20.438044757156348 11.005833730181894 4.717891484861768 0 0 0
155 1 0.0009998001230978179 12.577670335449547 3.1454867582338837 0 0 0
156 1 1.5738794731372983 14.149495341295042 4.718185715756219 0 0 0
157 1 3.1463822151498446 12.577721343888564 3.146382215149846 0 0 0
158 1 4.719638511133046 14.149115256089031 4.719638511133047 0 0 0
159 1 6.291407373496171 12.577607987548742 3.147877836974144 0 0 0
160 1 7.86390884853569 14.14893314222203 4.721753398788822 0 0 0
161 1 9.434270293407794 12.578353305896842 3.147623111478547 0 0 0
162 1 11.005763737295169 14.148966018471997 4.720772183754749 0 0 0
163 1 12.578341718413638 12.578338179831153 3.1452368619518842 0 0 0
164 1 14.150164460258786 14.150161414745776 4.718219398173886 0 0 0
165 1 15.721058087465163 12.577363258963297 3.1459487000172333 0 0 0
166 1 17.29250432849492 14.148840628007322 4.718519949343142 0 0 0
167 1 18.865390176793525 12.577537450450633 3.1452607024950723 0 0 0
168 1 20.437687519350185 14.149353473892962 4.717759287934633 0 0 0
169 1 0.0007370136723335805 15.72147215710157 3.145362419793959 0 0 0
170 1 1.5734761683409282 17.293433923476485 4.717932477185246 0 0 0
171 1 3.146013908645441 15.721416856022588 3.146013908645441 0 0 0
172 1 4.719108459092691 17.292628480934294 4.719108459092692 0 0 0
173 1 6.290747029507502 15.72107079141006 3.146969504367064 0 0 0
174 1 7.862678025770037 17.2929381775563 4.719024173695894 0 0 0
175 1 9.434136522805904 15.72129897492451 3.146514945833415 0 0 0
176 1 11.006063757135466 17.29274453047168 4.718872876971543 0 0 0
177 1 12.57736723993085 15.721054335859007 3.1459481460974175 0 0 0
178 1 14.148844546547858 17.29250087910131 4.718519377921179 0 0 0
179 1 15.721426458878318 15.721421835118047 3.145214938726235 0 0 0
180 1 17.292410508899547 17.292406596570217 4.718579547921144 0 0 0
181 1 18.865242349354073 15.721191296249579 3.145180386586542 0 0 0
182 1 20.437487103369637 17.2932381129305 4.717718728507027 0 0 0
183 1 0.0006362888142222864 18.865616391245293 3.1453467179165226 0 0 0
184 1 1.5731645707117037 20.43802234434297 4.717771128201479 0 0 0
185 1 3.145782269398579 18.865597803251454 3.1457822693985795 0 0 0
186 1 4.7181243902856975 20.437986275410953 4.718124390285699 0 0 0
187 1 6.290122968744874 18.86562116868533 3.1458427434049185 0 0 0
188 1 7.862165213222056 20.438143234469557 4.718068528349574 0 0 0
189 1 9.434022495141104 18.865539938965163 3.145618166533726 0 0 0
190 1 11.005838056995614 20.438041195927628 4.717890260467491 0 0 0
191 1 12.57754225376081 18.86538593789494 3.145259593321394 0 0 0
192 1 14.14935847333709 20.437683661924815 4.717758547112994 0 0 0
193 1 15.721196602073688 18.865237692126005 3.145179773248187 0 0 0
194 1 17.293242316759844 20.437483729226642 4.717718610672344 0 0 0
195 1 18.865226942707146 18.86522301714701 3.1453659045067663 0 0 0
196 1 20.437566570266842 20.437564131675035 4.717795279287189 0 0 0
197 1 0.000743114557824699 0.0007404997286650419 6.289843547825428 0 0 0
198 1 1.5735560917067797 1.5735520630156243 7.862017688803426 0 0 0
199 1 3.145784024997518 0.001247616923672404 6.2900300114841 0 0 0
200 1 4.718546961864775 1.5744616420580475 7.862433953124543 0 0 0
201 1 6.290150133636511 0.0015848493065824991 6.290150133636512 0 0 0
202 1 7.8623061727790535 1.5750093606931064 7.8623061727790535 0 0 0
203 1 9.434149747124343 0.0015616929140528507 6.290281180215718 0 0 0
204 1 11.006081988508951 1.5748890480080138 7.862582231961136 0 0 0
205 1 12.577652539600322 0.0011813277167285828 6.290145022342461 0 0 0
206 1 14.149618978157035 1.5739321422181014 7.862119076693021 0 0 0
207 1 15.721374485476591 0.0006413393458625105 6.289927724616032 0 0 0
208 1 17.29339460948918 1.5731216065253724 7.861989640615834 0 0 0
209 1 18.865413919134497 0.00030320295888881777 6.2899479515475365 0 0 0
210 1 20.437960549925396 1.5730380161821576 7.861926032579525 0 0 0
211 1 0.0012499406226281478 3.1457818665455695 6.290030913589477 0 0 0
212 1 1.574465223449618 4.718542748957833 7.862434879223214 0 0 0
213 1 3.146601197799323 3.1465985914752714 6.290553887994845 0 0 0
214 1 4.720379323319179 4.720375603999971 7.863604490731131 0 0 0
215 1 6.2913487216966875 3.148037019774994 6.2913487216966875 0 0 0
216 1 7.864587445792274 4.722970519227721 7.864587445792274 0 0 0
217 1 9.434980298413954 3.148426315645824 6.291718961565189 0 0 0
218 1 11.00711905912898 4.7239333186554475 7.86593053184221 0 0 0
219 1 12.57761255772229 3.147874585449337 6.291407734903132 0 0 0
220 1 14.14893692286353 4.721750778194523 7.86390957271144 0 0 0
221 1 15.721074868422761 3.146966736406555 6.290747781293349 0 0 0
222 1 17.292941830884654 4.719021274167248 7.862679035602801 0 0 0
223 1 18.865624225710977 3.1458404534114526 6.2901241353474004 0 0 0
224 1 20.43814675785652 4.718064828503089 7.862166611650928 0 0 0
225 1 0.0015873128925985574 6.290146929836138 6.290151649840833 0 0 0
226 1 1.57501242227083 7.862301492170372 7.862307206687503 0 0 0
227 1 3.148039811201286 6.291345220574242 6.2913493018094115 0 0 0
228 1 4.722973407407684 7.864583668767252 7.864587593155325 0 0 0
229 1 6.295778320672269 6.295775039245509 6.295778320672268 0 0 0
230 1 7.877143555949606 7.877140756654799 7.877143555949607 0 0 0
231 1 9.437445310570359 6.2958084195035475 6.295811930635345 0 0 0
232 1 11.009960199045663 7.878423617461872 7.878426655944832 0 0 0
233 1 12.576985458241474 6.295083359887614 6.295087223891657 0 0 0
234 1 14.139728155021299 7.875244568564717 7.8752478151785885 0 0 0
235 1 15.718214867464722 6.294308205682144 6.294311893090583 0 0 0
236 1 17.290400934196775 7.864379489106531 7.8643833982415705 0 0 0
237 1 18.86476513667191 6.29090834184925 6.290912342236266 0 0 0
238 1 20.438126951811807 7.86187989542611 7.861885336823567 0 0 0
239 1 0.0015647009284792187 9.434145416510361 6.290282366845804 0 0 0
240 1 1.5748918331596669 11.006077193522211 7.862582755318567 0 0 0
241 1 3.148429506530902 9.434975890862976 6.291719253199316 0 0 0
242 1 4.723935973532065 11.007115343091403 7.865930216824073 0 0 0
243 1 6.295811505102154 9.437441904014525 6.295811505102154 0 0 0
244 1 7.8784262857271115 11.009957289526263 7.8784262857271115 0 0 0
245 1 9.436404095159498 9.436401118119932 6.3002599195909825 0 0 0
246 1 11.01037195135755 11.010369167323704 7.836642681745416 0 0 0
247 1 12.579922885292255 9.437034744860899 6.29999212906414 0 0 0
248 1 14.14446508304927 11.004809123573285 7.8756549494857335 0 0 0
249 1 15.71980964776939 9.435569333886066 6.293441174016107 0 0 0
250 1 17.289529202527504 11.00683487674896 7.865236735392966 0 0 0
251 1 18.86480905966575 9.434494077057135 6.290789722393943 0 0 0
252 1 20.43737588705829 11.00595514770496 7.8622188528047445 0 0 0
253 1 0.0011846902185131567 12.577647607504755 6.290145584484468 0 0 0
254 1 1.5739349203481254 14.149614213810482 7.862118916622515 0 0 0
255 1 3.1478778369741445 12.577607987548744 6.2914073734961695 0 0 0
256 1 4.721753398788821 14.14893314222203 7.863908848535691 0 0 0
257 1 6.295086423768585 12.576982142908227 6.295086423768585 0 0 0
258 1 7.87524738074397 14.139725232459563 7.8752473807439705 0 0 0
259 1 9.43703761597421 12.579920073291667 6.299991730598081 0 0 0
260 1 11.004812024170288 14.1444621213871 7.875655012363076 0 0 0
261 1 12.580585992607011 12.580583414726476 6.28903890623029 0 0 0
262 1 14.145167320139167 14.145164818573694 7.870152024282788 0 0 0
263 1 15.718078481557573 12.576474150103445 6.29380836928894 0 0 0
264 1 17.289881480913568 14.14774212004354 7.863525522587415 0 0 0
265 1 18.864435161456548 12.577279703234248 6.290548689319927 0 0 0
266 1 20.43679952232552 14.14919730535778 7.8619964103839655 0 0 0
267 1 0.0006444436122228545 15.721369714530708 6.289927697063805 0 0 0
268 1 1.5731248040279142 17.293389906472573 7.861989097589103 0 0 0
269 1 3.1469695043670645 15.721070791410062 6.290747029507503 0 0 0
270 1 4.719024173695893 17.292938177556298 7.862678025770037 0 0 0
271 1 6.294310803967568 15.718211981072631 6.294310803967568 0 0 0
272 1 7.86438252753377 17.290397790845457 7.86438252753377 0 0 0
273 1 9.43557188457312 15.719807000207974 6.293440601056277 0 0 0
274 1 11.006837809974886 17.289526382552136 7.865236358914123 0 0 0
275 1 12.576476851994906 15.718075879419635 6.2938081025927834 0 0 0
276 1 14.147745030332066 17.289878864765505 7.8635254003451305 0 0 0
277 1 15.718922931035594 15.718920070541046 6.2929596019776755 0 0 0
278 1 17.28900557359582 17.289002392178322 7.865129178889491 0 0 0
279 1 18.864282952753896 15.720655105842175 6.290387263556233 0 0 0
280 1 20.436344506657676 17.29257625291518 7.86226849447441 0 0 0
281 1 0.0003061564292505015 18.86541019463995 6.289947561544825 0 0 0
282 1 1.573041821943585 20.43795639866231 7.861925304700398 0 0 0
283 1 3.145842743404919 18.86562116868533 6.290122968744873 0 0 0
284 1 4.718068528349573 20.43814323446956 7.862165213222056 0 0 0
285 1 6.290910680252188 18.864762735104687 6.290910680252189 0 0 0
286 1 7.86188382488794 20.438123969273647 7.86188382488794 0 0 0
287 1 9.434497366511884 18.864806242460606 6.290788408278327 0 0 0
288 1 11.005959334624947 20.437372963162666 7.862217889871153 0 0 0
289 1 12.577283396502816 18.86443215287606 6.290547936186408 0 0 0
290 1 14.149201505891941 20.436796750211233 7.861996051510907 0 0 0
291 1 15.720658968212991 18.864279856376022 6.290386912693671 0 0 0
292 1 17.292580661882294 20.436341118351805 7.862268463252843 0 0 0
293 1 18.86422056832887 18.864216932967153 6.290722998755317 0 0 0
294 1 20.437306328293513 20.437302119128127 7.861975625696402 0 0 0
295 1 0.0005701877040570227 0.000565084550751294 9.433824597664874 0 0 0
296 1 1.573400990992795 1.5733952558506503 11.005825211032137 0 0 0
297 1 3.145688348337575 0.001197266376365812 9.433950380373643 0 0 0
298 1 4.7184320022515225 1.5742768524309476 11.005971098029184 0 0 0
299 1 6.290281180215717 0.0015616929140536812 9.434149747124344 0 0 0
300 1 7.862582231961135 1.574889048008014 11.006081988508951 0 0 0
301 1 9.433618477860323 0.0016266262370911177 9.433618477860323 0 0 0
302 1 11.005795144309864 1.5735283744627706 11.005795144309864 0 0 0
303 1 12.577689668797525 0.0006037938098625226 9.433752761215493 0 0 0
304 1 14.149536418072357 1.5731563057429583 11.005622694900325 0 0 0
305 1 15.721197746308173 22.009367226099275 9.433708640672132 0 -1 0
306 1 17.29314445860248 1.5725747364789695 11.005708401764435 0 0 0
307 1 18.865124761849756 22.009427856604123 9.43388240406677 0 -1 0
308 1 20.437805751371695 1.5727560235277718 11.005724483741787 0 0 0
309 1 0.001201982496927629 3.14568320662946 9.433951127660187 0 0 0
310 1 1.5742817112379552 4.718426188106647 11.005971446689006 0 0 0
311 1 3.1466549994517976 3.1466498928331377 9.434290457448054 0 0 0
312 1 4.720260493628363 4.720255646171802 11.00638981746482 0 0 0
313 1 6.291718961565189 3.1484263156458234 9.434980298413954 0 0 0
314 1 7.86593053184221 4.723933318655448 11.00711905912898 0 0 0
315 1 9.43428653611068 3.1483374568470026 9.43428653611068 0 0 0
316 1 11.006565975522008 4.716438300460642 11.006565975522008 0 0 0
317 1 12.578357571623656 3.1476205679107365 9.434270449852578 0 0 0
318 1 14.148969807850117 4.720769244243465 11.005763962175534 0 0 0
319 1 15.721303465545834 3.1465119370306143 9.434136896217185 0 0 0
320 1 17.292748601702414 4.718869286112377 11.006063986208048 0 0 0
321 1 18.865544530614567 3.1456142032156826 9.434023113014934 0 0 0
322 1 20.438045658176083 4.717885236656946 11.005838525143938 0 0 0
323 1 0.0015655306261369338 6.2902759200149605 9.43415091108233 0 0 0
324 1 1.5748926065579956 7.862577014343104 11.00608228703143 0 0 0
325 1 3.148430077364985 6.291714119740968 9.43498077614174 0 0 0
326 1 4.723936585389418 7.865926406129262 11.00711901820667 0 0 0
327 1 6.295811930635346 6.2958084195035475 9.437445310570359 0 0 0
328 1 7.878426655944832 7.878423617461872 11.009960199045661 0 0 0
329 1 9.436404254220879 6.30025737691327 9.436404254220879 0 0 0
330 1 11.010372424001218 7.836639570309894 11.010372424001218 0 0 0
331 1 12.579923433598514 6.299989007670248 9.437038095590589 0 0 0
332 1 14.144465704216687 7.875651390753964 11.004812139655268 0 0 0
333 1 15.719810708895281 6.29343737269645 9.435572391547101 0 0 0
334 1 17.289529918783273 7.8652328111694585 11.006838103876508 0 0 0
335 1 18.86480998686371 6.290784561479249 9.434498313726813 0 0 0
336 1 20.437376408408227 7.86221332380975 11.005959857162912 0 0 0
337 1 0.0016295767282123322 9.433613708071634 9.433619369753407 0 0 0
338 1 1.5735310424126803 11.005790680781242 11.00579526627855 0 0 0
339 1 3.148340250534124 9.434282100633135 9.434286813574511 0 0 0
340 1 4.71644102902588 11.00656232295059 11.006565603320768 0 0 0
341 1 6.3002599195909825 9.43640111811993 9.436404095159498 0 0 0
342 1 7.836642681745416 11.010369167323704 11.01037195135755 0 0 0
343 1 9.470812525230023 9.4708096278799 9.470812525230023 0 0 0
344 1 20.437126500010983 20.437124735236893 20.437126500010983 0 0 0
345 1 12.559056426901394 9.473299563904904 9.473303062038973 0 0 0
346 1 14.189631112272604 11.01023225614785 11.010235573350498 0 0 0
347 1 15.713243524062287 9.438109539382275 9.438112709768015 0 0 0
348 1 17.294357122895313 11.002723188786755 11.002726338506646 0 0 0
349 1 18.865138373743914 9.43312823216428 9.433132614099076 0 0 0
350 1 20.438099656750794 11.004947213107439 11.0049515683337 0 0 0
351 1 0.000606423180032117 12.577685089623236 9.433753253992668 0 0 0
352 1 1.57315915168144 14.149531905976813 11.00562297052204 0 0 0
353 1 3.147623111478547 12.578353305896844 9.434270293407794 0 0 0
354 1 4.720772183754749 14.148966018471995 11.005763737295169 0 0 0
355 1 6.29999173059808 12.57992007329167 9.437037615974212 0 0 0
356 1 7.875655012363076 14.144462121387102 11.004812024170286 0 0 0
357 1 9.473302818990627 12.559053158985005 9.473302818990629 0 0 0
358 1 11.010236350698683 14.18962642557492 11.010236350698682 0 0 0
359 1 12.57299992428981 12.572996621791095 9.393941574328094 0 0 0
360 1 14.110127925964433 14.110124764748363 11.024240088258674 0 0 0
361 1 15.707689105906487 12.578526226760406 9.438862398162069 0 0 0
362 1 17.28336322059191 14.146279956572805 11.003411561217488 0 0 0
363 1 18.862568937176793 12.577542963352007 9.434332899730382 0 0 0
364 1 20.435700231839686 14.149034710314268 11.004950046460726 0 0 0
365 1 22.009370289216612 15.721192963358853 9.43370871848311 -1 0 0
366 1 1.572578518646456 17.29313953340057 11.005708588573407 0 0 0
367 1 3.1465149458334127 15.721298974924508 9.434136522805902 0 0 0
368 1 4.718872876971543 17.292744530471683 11.006063757135466 0 0 0
369 1 6.293440601056277 15.719807000207972 9.43557188457312 0 0 0
370 1 7.865236358914123 17.289526382552133 11.006837809974886 0 0 0
371 1 9.438112932133604 15.713239895762017 9.438112932133606 0 0 0
372 1 11.00272648486423 17.294353867544086 11.00272648486423 0 0 0
373 1 12.578529162668831 15.707686033894484 9.438862684434238 0 0 0
374 1 14.14628301300842 17.283360436559335 11.003411548458438 0 0 0
375 1 15.70809741593326 15.708094744684786 9.443605555874765 0 0 0
376 1 17.288233648118197 17.28823027819884 11.006371645687185 0 0 0
377 1 18.86156618828284 15.719402242382477 9.434398276241755 0 0 0
378 1 20.435428288353176 17.29190244430855 11.005738612374495 0 0 0
379 1 22.00943211209269 18.865119665053246 9.43388232422951 -1 0 0
380 1 1.57276111801352 20.437800610910134 11.005724418808661 0 0 0
381 1 3.1456181665337275 18.865539938965163 9.434022495141104 0 0 0
382 1 4.717890260467491 20.438041195927624 11.005838056995612 0 0 0
383 1 6.290788408278326 18.864806242460606 9.434497366511884 0 0 0
384 1 7.862217889871154 20.437372963162666 11.005959334624947 0 0 0
385 1 9.43313203684669 18.86513517363195 9.43313203684669 0 0 0
386 1 11.004951260998434 20.438096795651514 11.004951260998434 0 0 0
387 1 12.577546388233769 18.86256623411684 9.434332560974571 0 0 0
388 1 14.149038766693742 20.435697459054328 11.004949596016356 0 0 0
389 1 15.719405872568997 18.86156323046108 9.434398151665214 0 0 0
390 1 17.291907063122 20.43542446053524 11.00573832305811 0 0 0
391 1 18.863669155916458 18.8636649485595 9.43424465300458 0 0 0
392 1 20.436922743633733 20.43691765568064 11.005662579332483 0 0 0
393 1 0.0003552286506460909 0.00034997327305295097 12.57758030114116 0 0 0
394 1 1.5731937643760958 1.5731891188875284 14.149578445355713 0 0 0
395 1 3.145485774612741 0.0009948457867810516 12.577675947129725 0 0 0
396 1 4.718185683478717 1.573875563431333 14.14950040858975 0 0 0
397 1 6.290145022342461 0.0011813277167291984 12.577652539600322 0 0 0
398 1 7.862119076693022 1.5739321422181016 14.149618978157035 0 0 0
399 1 9.433752761215493 0.0006037938098618567 12.577689668797525 0 0 0
400 1 11.005622694900325 1.5731563057429592 14.149536418072357 0 0 0
401 1 12.577502314035074 0.00023866522460806776 12.577502314035076 0 0 0
402 1 14.149680122899449 1.5721394824423496 14.149680122899449 0 0 0
403 1 15.720719953560126 22.008413870494703 12.577247108951111 0 -1 0
404 1 17.29301279136358 1.5722041683399905 14.149201977337762 0 0 0
405 1 18.864866315465846 22.009025405464854 12.577409220136666 0 -1 0
406 1 20.437615097980625 1.5725591265199712 14.149444918503486 0 0 0
407 1 0.0009996828354431296 3.1454804364894406 12.57767575526458 0 0 0
408 1 1.5738797321548064 4.718180960353858 14.149499681147866 0 0 0
409 1 3.1463824514470295 3.1463769335562937 12.577726641923077 0 0 0
410 1 4.719639443388111 4.7196350340952336 14.149119115250533 0 0 0
411 1 6.291407734903131 3.1478745854493373 12.57761255772229 0 0 0
412 1 7.86390957271144 4.721750778194522 14.14893692286353 0 0 0
413 1 9.434270449852578 3.147620567910738 12.578357571623656 0 0 0
414 1 11.005763962175534 4.720769244243466 14.148969807850115 0 0 0
415 1 12.578341914309824 3.1452339063730026 12.578341914309826 0 0 0
416 1 14.15016455761145 4.718216277827631 14.15016455761145 0 0 0
417 1 15.721058343147114 3.145944966143547 12.577366839825121 0 0 0
418 1 17.29250393382256 4.718516473532889 14.148843634620532 0 0 0
419 1 18.865390176440687 3.145255454103609 12.57754177267825 0 0 0
420 1 20.437687144256852 4.71775479559893 14.149357412252254 0 0 0
421 1 0.001185347507809788 6.290139880202781 12.57765229054255 0 0 0
422 1 1.5739356207349986 7.86211475590511 14.149617782396001 0 0 0
423 1 3.1478787964839037 6.291402639388773 12.577612279704816 0 0 0
424 1 4.721754391992182 7.863905766757886 14.148936011749008 0 0 0
425 1 6.295087223891657 6.295083359887614 12.576985458241474 0 0 0
426 1 7.875247815178587 7.875244568564717 14.139728155021299 0 0 0
427 1 9.437038095590589 6.2999890076702485 12.579923433598513 0 0 0
428 1 11.004812139655268 7.875651390753964 14.144465704216689 0 0 0
429 1 12.580586561649488 6.289035483785834 12.58058656164949 0 0 0
430 1 14.145167630979413 7.870148708469764 14.145167630979415 0 0 0
431 1 15.718079210828668 6.293804869511855 12.576476886619474 0 0 0
432 1 17.289881421596977 7.863522717723196 14.147744252885495 0 0 0
433 1 18.86443566770056 6.290544141418265 12.577283156661768 0 0 0
434 1 20.436799591133052 7.861992631745621 14.14920047780358 0 0 0
435 1 0.0006067762790747481 9.433748425015027 12.577689478862132 0 0 0
436 1 1.5731594327045406 11.00561881663723 14.14953581897052 0 0 0
437 1 3.1476237405044065 9.434266166647777 12.578357021212636 0 0 0
438 1 4.720772653064356 11.005760766415886 14.148968884198549 0 0 0