LAMMPS data file via write_data, version 2 Aug 2023, timestep = 34, units = metal

686 atoms
3 atom types

0 22.009546999999998 xlo xhi
0 22.009546999999998 ylo yhi
0 22.009546999999998 zlo zhi

Masses

1 183.84
2 1.008
3 4.0026

Atoms # atomic

1 1 22.00896022714516 22.008956890992454 22.008960227145167 -1 -1 -1
2 1 1.5720622444794972 1.5720588826697997 1.5720622444794967 0 0 0
3 1 3.14417530213742 22.009133680944256 22.009137020508124 0 -1 -1
4 1 4.716591002313717 1.5722684359587826 1.5722717989351858 0 0 0
5 1 6.288559837841523 22.009160985129864 22.009164336692866 0 -1 -1
6 1 7.8607361613731275 1.5723249748533317 1.5723283416637355 0 0 0
7 1 9.432568122650407 22.009012973573043 22.00901633082726 0 -1 -1
8 1 11.00457006446717 1.5721876754121857 1.572191043331731 0 0 0
9 1 12.576392506857541 22.008820836036122 22.008824195916745 0 -1 -1
10 1 14.148404959031902 1.5719982438258582 1.572001613469313 0 0 0
11 1 15.72025378760682 22.008693539460612 22.008696894512244 0 -1 -1
12 1 17.292428154656207 1.5718604778542775 1.5718638475439655 0 0 0
13 1 18.864434657237016 22.008760336597817 22.00876368341981 0 -1 -1
14 1 20.43683544849674 1.571881316313395 1.5718846820536483 0 0 0
15 1 22.00913703366899 3.144171925971605 22.009137033668996 -1 0 -1
16 1 1.5722718037617187 4.7165876296679405 1.572271803761725 0 0 0
17 1 3.144420746309128 3.144417371769639 22.00938527334718 0 0 -1
18 1 4.7169701938354 4.716966830134767 1.572855985922545 0 0 0
19 1 6.288726226043142 3.144495564214884 6.182742194591197e-05 0 0 0
20 1 7.861099290523041 4.717163687218118 1.5731134750483289 0 0 0
21 1 9.432682969370042 3.1444311821354773 4.0638568032898556e-05 0 0 0
22 1 11.004726268817743 4.7170646715185836 1.572954870515809 0 0 0
23 1 12.576461595997714 3.1442533026841133 22.009406184226176 0 0 -1
24 1 14.148355764763465 4.7168433483101415 1.572603769422681 0 0 0
25 1 15.720339081756496 3.1441221568544915 22.00916379304257 0 0 -1
26 1 17.29236979956473 4.716603969934701 1.5722389543288198 0 0 0
27 1 18.864521206114958 3.144099001085758 22.00907869916928 0 0 -1
28 1 20.43691309543852 4.716481064538284 1.5719559469102047 0 0 0
29 1 22.00916435256828 6.28855646421827 22.009164352568284 -1 0 -1
30 1 1.5723283423061614 7.8607328117323245 1.5723283423061658 0 0 0
31 1 3.144498923854416 6.288722864671885 6.183824734911055e-05 0 0 0
32 1 4.717167035883635 7.8610959513503085 1.5731134784209804 0 0 0
33 1 6.288761782753368 6.288758433767478 0.00037004768647526176 0 0 0
34 1 7.860890651187871 7.8608873110055155 1.573551826037356 0 0 0
35 1 9.43285829743204 6.2889345123664055 0.000360895983679694 0 0 0
36 1 11.004858251965322 7.861205462114655 1.57347950039367 0 0 0
37 1 12.576475970269671 6.288796688315831 3.9317666123532334e-05 0 0 0
38 1 14.148582845654728 7.860742691962047 1.572596524268427 0 0 0
39 1 15.720334076993256 6.288581495178048 22.009098419285188 0 0 -1
40 1 17.29241956951308 7.860656097840711 1.5719531873982953 0 0 0
41 1 18.864410430348084 6.288613417304184 22.008797837063547 0 0 -1
42 1 20.436895695309833 7.86063799047849 1.5718681263833418 0 0 0
43 1 22.00901633979766 9.43256478760376 22.00901633979767 -1 0 -1
44 1 1.572191032660091 11.004566764024855 1.572191032660095 0 0 0
45 1 3.14443453172622 9.432679642577513 4.064833125459606e-05 0 0 0
46 1 4.717068017589046 11.00472295486684 1.5729548695463953 0 0 0
47 1 6.288937854455869 9.432854966654606 0.0003608995187585553 0 0 0
48 1 7.861208810980921 11.004854911010975 1.573479501310986 0 0 0
49 1 9.432313073671098 9.43230972819331 0.0004891837729413729 0 0 0
50 1 11.004586814661893 11.004583450369834 1.5720973296820022 0 0 0
51 1 12.576602342286268 9.432460393754567 22.009116117933957 0 0 -1
52 1 14.14856310302919 11.004415479887312 1.5719657237890716 0 0 0
53 1 15.720272165785836 9.432410755009656 22.008477421112357 0 0 -1
54 1 17.29223351710831 11.004507245606927 1.5714785767977872 0 0 0
55 1 18.864178672853022 9.432613340141263 22.008434346669162 0 0 -1
56 1 20.436765436099336 11.004491996782084 1.571626448029418 0 0 0
57 1 22.008824192314854 12.5763892149059 22.00882419231486 -1 0 -1
58 1 1.5720015964878822 14.148401683850304 1.5720015964878906 0 0 0
59 1 3.144256648421084 12.576458300597405 22.009406185640657 0 0 -1
60 1 4.716846702621674 14.14835245708969 1.5726037650515903 0 0 0
61 1 6.288800039341869 12.576472640145978 3.93211077381798e-05 0 0 0
62 1 7.860746052073696 14.14857949044572 1.5725965311646457 0 0 0
63 1 9.432463754426022 12.576598980070948 22.009116123037014 0 0 -1
64 1 11.004418845878666 14.148559722687404 1.5719657329761096 0 0 0
65 1 12.57644168353081 12.576438310689356 22.008983176867986 0 0 -1
66 1 14.148717245153502 14.148713879010922 1.5710321959125166 0 0 0
67 1 15.719837780065129 12.576156954790488 22.007605993343446 0 0 -1
68 1 17.292107323655546 14.148131524222984 1.571142093929956 0 0 0
69 1 18.86397308615936 12.576253405207765 22.008091086566587 0 0 -1
70 1 20.43660029952927 14.148298743517131 1.5714343684335788 0 0 0
71 1 22.008696881453158 15.720250519971227 22.00869688145316 -1 0 -1
72 1 1.5718638292723355 17.292424875702217 1.571863829272337 0 0 0
73 1 3.1441255152954426 15.720335789680004 22.009163778351898 0 0 -1
74 1 4.716607340984532 17.29236647763801 1.5722389456627603 0 0 0
75 1 6.288584860880418 15.720330738140698 22.009098413068315 0 0 -1
76 1 7.860659463247439 17.292416202164393 1.571953194405739 0 0 0
77 1 9.43241411888835 15.720268790373249 22.00847742467457 0 0 -1
78 1 11.004510590104248 17.29223013505664 1.5714785934442423 0 0 0
79 1 12.576160306336801 15.719834403823134 22.007605999562767 0 0 -1
80 1 14.148134848125766 17.292103964316013 1.5711421079777503 0 0 0
81 1 15.720139480865285 15.720136142169581 22.00753089773613 0 0 -1
82 1 17.292262000080235 17.29225868871876 1.5711295595005192 0 0 0
83 1 18.863877669378574 15.71991472969722 22.00793804529389 0 0 -1
84 1 20.436537331224514 17.292271736386358 1.5714283961350373 0 0 0
85 1 22.008763673269797 18.864431363880303 22.0087636732698 -1 0 -1
86 1 1.5718846721408166 20.43683212631447 1.5718846721408248 0 0 0
87 1 3.144102370129902 18.864517891107184 22.00907867882627 0 0 -1
88 1 4.716484443377355 20.436909746883934 1.5719559380409016 0 0 0
89 1 6.2886167953500935 18.86440707484947 22.008797824061407 0 0 -1
90 1 7.860641348624619 20.436892321982107 1.5718681292827792 0 0 0
91 1 9.43261669441229 18.864175295624133 22.008434345479667 0 0 -1
92 1 11.00449531583507 20.436762060962764 1.5716264622186507 0 0 0
93 1 12.576256719796149 18.863969722637467 22.008091095782394 0 0 -1
94 1 14.148302022047973 20.43659694698245 1.5714343860592173 0 0 0
95 1 15.719918023015536 18.86387433450791 22.00793805385051 0 0 -1
96 1 17.292275014164883 20.436534002588946 1.5714284090807955 0 0 0
97 1 18.864058731491255 18.86405543104281 22.008185027036387 0 0 -1
98 1 20.436612934047222 20.4366096236823 1.571641044028414 0 0 0
99 1 22.00913702050813 22.009133680944245 3.1441753021374166 -1 -1 0
100 1 1.572271798935194 1.5722684359587817 4.71659100231372 0 0 0
101 1 3.1444207440292797 22.009381921201992 3.144420744029283 0 -1 0
102 1 4.716970199834906 1.5728526236432487 4.716970199834909 0 0 0
103 1 6.288726232671169 5.8470258502662094e-05 3.1444989327603015 0 0 0
104 1 7.861099301375001 1.573110118261364 4.7171670558475975 0 0 0
105 1 9.432682973005294 3.728076095616659e-05 3.1444345533282556 0 0 0
106 1 11.004726267700914 1.572951517660784 4.717068042868748 0 0 0
107 1 12.576461588078445 22.009402825586424 3.144256676403893 0 -1 0
108 1 14.148355748666297 1.5726004176498187 4.716846727503113 0 0 0
109 1 15.720339062973794 22.00916043421894 3.144125537832757 0 -1 0
110 1 17.29236977642897 1.5722355963350152 4.716607353211041 0 0 0
111 1 18.86452118732696 22.009075341196557 3.144102382211368 0 -1 0
112 1 20.436913078223867 1.5719525818670148 4.716484444521972 0 0 0
113 1 22.00938527334718 3.1444173717696446 3.1444207463091254 -1 0 0
114 1 1.5728559859225433 4.71696683013477 4.716970193835399 0 0 0
115 1 3.1449021818035465 3.1448988109536153 3.144902181803548 0 0 0
116 1 4.718404272738245 4.718400916522164 4.718404272738244 0 0 0
117 1 6.289182653219702 3.14519806962248 3.145201434231731 0 0 0
118 1 7.862120949351599 4.718725692103232 4.718729041403217 0 0 0
119 1 9.43299995627416 3.1452643725212988 3.1452677364168204 0 0 0
120 1 11.005143771356042 4.718632718246389 4.718636064930688 0 0 0
121 1 12.576520843530673 3.145011888378987 3.1450152523076076 0 0 0
122 1 14.14807232419699 4.718056750240766 4.7180600982757595 0 0 0
123 1 15.720312627891648 3.1446867858691805 3.1446901547802133 0 0 0
124 1 17.291680569314693 4.717633745659682 4.717637098621077 0 0 0
125 1 18.86449431364596 3.1444972325948464 3.1445006054250735 0 0 0
126 1 20.436905260937724 4.7167613265409765 4.716764689820726 0 0 0
127 1 6.183824735404873e-05 6.288722864671882 3.144498923854414 0 0 0
128 1 1.573113478420983 7.861095951350305 4.717167035883634 0 0 0
129 1 3.1452014291809767 6.289179297283036 3.1452014291809807 0 0 0
130 1 4.718729031517163 7.862117613022069 4.718729031517162 0 0 0
131 1 6.289790861737267 6.289787517614342 3.1463912823733775 0 0 0
132 1 7.8627192138373 7.862715880912486 4.7206893130803085 0 0 0
133 1 9.433633528445746 6.290169930078285 3.146794233558111 0 0 0
134 1 11.00583105029911 7.864163413994259 4.721780955704745 0 0 0
135 1 12.576469162109971 6.2898828186490645 3.1462966150159373 0 0 0
136 1 14.148126804975124 7.862180782092444 4.719691674381643 0 0 0
137 1 15.72011373540215 6.289282822765311 3.1454678532332747 0 0 0
138 1 17.292074574588156 7.861234709825977 4.717474412071201 0 0 0
139 1 18.864603068639653 6.288762620640932 3.144528806688169 0 0 0
140 1 20.437063912028233 7.8608442584706975 4.7167424200684325 0 0 0
141 1 4.064833125657698e-05 9.432679642577513 3.1444345317262163 0 0 0
142 1 1.5729548695463973 11.004722954866837 4.717068017589044 0 0 0
143 1 3.1452677258219026 9.432996632584237 3.1452677258219057 0 0 0
144 1 4.7186360541726655 11.00514044853709 4.718636054172669 0 0 0
145 1 6.290173268067028 9.433630197421811 3.146794230778666 0 0 0
146 1 7.864166754500156 11.005827706672374 4.721780957904911 0 0 0
147 1 9.432842780437902 9.432839433025329 3.1464282229103526 0 0 0
148 1 11.005246782220349 11.005243423066831 4.713760813420733 0 0 0
149 1 12.577309731050969 9.432864129811176 3.145840202410097 0 0 0
150 1 14.148076805947909 11.00453647226747 4.718889549988686 0 0 0
151 1 15.72039191461192 9.432834730077763 3.1450683706922873 0 0 0
152 1 17.29189319365509 11.004850320771737 4.717418968801485 0 0 0
153 1 18.864550319204984 9.432753235509594 3.1443637081813898 0 0 0
154 1 20.436979037913048 11.004595113381232 4.716597680515495 0 0 0
155 1 22.00940618564066 12.576458300597409 3.144256648421078 -1 0 0
156 1 1.5726037650515923 14.148352457089693 4.716846702621668 0 0 0
157 1 3.1450152370345767 12.576517548911186 3.1450152370345785 0 0 0
158 1 4.718060093288975 14.148069003350612 4.7180600932889725 0 0 0
159 1 6.289886166495391 12.576465831019801 3.146296616473618 0 0 0
160 1 7.862184131441872 14.148123443298985 4.719691686152234 0 0 0
161 1 9.432867487853219 12.577306366880721 3.1458402094824636 0 0 0
162 1 11.004539835641653 14.148073424475612 4.718889563844313 0 0 0
163 1 12.577299073231119 12.577295697840054 3.143614410747243 0 0 0
164 1 14.149382215842179 14.149378847231628 4.7163802912886625 0 0 0
165 1 15.720174437877008 12.576266660616092 3.1445969000754705 0 0 0
166 1 17.29170167469178 14.147835220048348 4.717093586000343 0 0 0
167 1 18.86444634780429 12.576372894721862 3.144054938379958 0 0 0
168 1 20.436685960691296 14.148231154495763 4.716465711226263 0 0 0
169 1 22.0091637783519 15.720335789679998 3.144125515295438 -1 0 0
170 1 1.572238945662768 17.292366477638005 4.716607340984535 0 0 0
171 1 3.1446901429189347 15.720309332899948 3.1446901429189418 0 0 0
172 1 4.717637102295716 17.29167723377812 4.717637102295723 0 0 0
173 1 6.289286181992055 15.72011039199691 3.145467858499897 0 0 0
174 1 7.861238069506539 17.292071199449797 4.717474433941303 0 0 0
175 1 9.432838088673295 15.720388534089981 3.1450683902744503 0 0 0
176 1 11.004853668122733 17.291889804183533 4.717418995976939 0 0 0
177 1 12.576270015474663 15.72017105500989 3.1445969168174575 0 0 0
178 1 14.147838554659362 17.291698304321827 4.717093603424535 0 0 0
179 1 15.720540282414607 15.720536938435382 3.1438374436763805 0 0 0
180 1 17.291646963380128 17.291643636232543 4.717064196757398 0 0 0
181 1 18.86430436061026 15.720146983826634 3.143958315243306 0 0 0
182 1 20.436510686900935 17.29222837836026 4.71639949913051 0 0 0
183 1 22.00907867882627 18.86451789110719 3.144102370129897 -1 0 0
184 1 1.5719559380409003 20.436909746883938 4.716484443377349 0 0 0
185 1 3.14450059807258 18.86449099485032 3.1445005980725806 0 0 0
186 1 4.716764699355303 20.436901907106193 4.716764699355299 0 0 0
187 1 6.288765989880698 18.86459971091779 3.1445288148964834 0 0 0
188 1 7.860847615052084 20.43706053921643 4.716742449876811 0 0 0
189 1 9.43275658338861 18.864546933572488 3.144363731017269 0 0 0
190 1 11.004598440178487 20.436975663347074 4.7165977174945874 0 0 0
191 1 12.576376210029235 18.864442973747167 3.1440549636125072 0 0 0
192 1 14.14823445154234 20.436682604092862 4.7164657440748226 0 0 0
193 1 15.720150281021017 18.864301017744832 3.143958329661378 0 0 0
194 1 17.29223167522887 20.436507352794667 4.716399513549499 0 0 0
195 1 18.864257829642238 18.864254525632823 3.1441135256518535 0 0 0
196 1 20.436529638288665 20.436526317021954 4.716497533311944 0 0 0
197 1 22.009164336692866 22.009160985129864 6.288559837841526 -1 -1 0
198 1 1.5723283416637408 1.5723249748533266 7.860736161373126 0 0 0
199 1 3.1444989327602975 5.847025851041528e-05 6.288726232671168 0 0 0
200 1 4.717167055847593 1.5731101182613654 7.861099301375002 0 0 0
201 1 6.288761804199443 0.0003666826234318903 6.28876180419944 0 0 0
202 1 7.860890672184145 1.5735484833433233 7.860890672184142 0 0 0
203 1 9.432858309518528 0.00035753907185096624 6.288937887661888 0 0 0
204 1 11.004858251287862 1.5734761703959779 7.861208836690459 0 0 0
205 1 12.57647595950751 3.596631773811725e-05 6.288800072154013 0 0 0
206 1 14.14858282063063 1.572593198872946 7.860746069606411 0 0 0
207 1 15.720334043346199 22.009095068533412 6.288584881421384 0 -1 0
208 1 17.292419534026035 1.571949851358962 7.860659469459511 0 0 0
209 1 18.864410394730584 22.008794480193494 6.288616802283644 0 -1 0
210 1 20.43689566756789 1.5718647698412103 7.860641348859507 0 0 0
211 1 6.182742193952504e-05 3.144495564214888 6.288726226043146 0 0 0
212 1 1.5731134750483247 4.717163687218125 7.861099290523039 0 0 0
213 1 3.1452014342317325 3.145198069622474 6.289182653219701 0 0 0
214 1 4.718729041403216 4.7187256921032334 7.862120949351601 0 0 0
215 1 6.2897908725231515 3.1463879372633192 6.289790872523149 0 0 0
216 1 7.862719219619632 4.720685990199616 7.862719219619626 0 0 0
217 1 9.433633532236009 3.1467908989533364 6.2901732881027135 0 0 0
218 1 11.005831047700466 4.721777647283905 7.864166760125852 0 0 0
219 1 12.576469153740371 3.1462932861527753 6.289886182759093 0 0 0
220 1 14.148126788341365 4.71968836533378 7.862184129877696 0 0 0
221 1 15.720113713011525 3.145464517230444 6.289286188997176 0 0 0
222 1 17.292074552896086 4.7174710895303065 7.861238058471404 0 0 0
223 1 18.864603048212444 3.1445254560334313 6.288765987259852 0 0 0
224 1 20.437063900237366 4.716739077975774 7.8608476010827095 0 0 0
225 1 0.0003700476864784142 6.288758433767473 6.288761782753372 0 0 0
226 1 1.5735518260373564 7.86088731100551 7.860890651187872 0 0 0
227 1 3.1463912823733735 6.289787517614343 6.289790861737271 0 0 0
228 1 4.720689313080306 7.862715880912483 7.862719213837307 0 0 0
229 1 6.29357897281437 6.2935756389758835 6.293578972814368 0 0 0
230 1 7.873168350580216 7.873165027372501 7.873168350580213 0 0 0
231 1 9.435854563641483 6.293692688377189 6.293696016356539 0 0 0
232 1 11.008439467733822 7.875215915374942 7.8752192315146745 0 0 0
233 1 12.575959141406809 6.293069298525852 6.293072625558432 0 0 0
234 1 14.1402052317839 7.87199289258556 7.8719962059834945 0 0 0
235 1 15.717655932471704 6.292347270308794 6.292350600271651 0 0 0
236 1 17.290211993156415 7.862404362800638 7.862407689784779 0 0 0
237 1 18.863939491735746 6.289372317650205 6.2893756565627505 0 0 0
238 1 20.437191205185528 7.860477407606389 7.860480743859583 0 0 0
239 1 0.00036089951875052304 9.43285496665461 6.288937854455873 0 0 0
240 1 1.5734795013109857 11.004854911010977 7.861208810980922 0 0 0
241 1 3.1467942307786654 9.433630197421813 6.290173268067028 0 0 0
242 1 4.721780957904902 11.005827706672381 7.864166754500154 0 0 0
243 1 6.293696012955926 9.435851229965852 6.29369601295592 0 0 0
244 1 7.875219233641241 11.008436125248302 7.875219233641222 0 0 0
245 1 9.434042675492767 9.434039337419762 6.2967331145052565 0 0 0
246 1 11.008142362455187 11.008139017631073 7.829863809795102 0 0 0
247 1 12.579163186269357 9.434855940768283 6.296919308473772 0 0 0
248 1 14.14406066918361 11.003389727715156 7.872596670147372 0 0 0
249 1 15.719174907904009 9.434032727197891 6.291430290909337 0 0 0
250 1 17.28905571704613 11.00560224394898 7.863546584740798 0 0 0
251 1 18.863931068661596 9.433181422581544 6.289349374243514 0 0 0
252 1 20.43645674681981 11.004743535311556 7.86086500629276 0 0 0
253 1 3.932110772933604e-05 12.576472640145974 6.288800039341874 0 0 0
254 1 1.5725965311646422 14.14857949044572 7.860746052073702 0 0 0
255 1 3.146296616473621 12.576465831019796 6.289886166495394 0 0 0
256 1 4.719691686152237 14.148123443298976 7.862184131441881 0 0 0
257 1 6.293072628172705 12.575955798070193 6.293072628172707 0 0 0
258 1 7.871996221088719 14.140201868269914 7.871996221088726 0 0 0
259 1 9.43485928398883 12.579159822258035 6.296919318150675 0 0 0
260 1 11.003393075493973 14.144057297093871 7.872596679563049 0 0 0
261 1 12.57979103827268 12.57978767134318 6.286329121025989 0 0 0
262 1 14.146054201850628 14.146050833011298 7.866652981650189 0 0 0
263 1 15.717528927906718 12.575464026729739 6.292028368561863 0 0 0
264 1 17.2896560666787 14.147036880281092 7.861878237513476 0 0 0
265 1 18.863635626450264 12.576164904354906 6.289150513309563 0 0 0
266 1 20.436000272262202 14.148184856526731 7.860624703636055 0 0 0
267 1 22.009098413068312 15.7203307381407 6.288584860880422 -1 0 0
268 1 1.5719531944057388 17.292416202164393 7.860659463247435 0 0 0
269 1 3.145467858499893 15.720110391996919 6.2892861819920505 0 0 0
270 1 4.7174744339412955 17.292071199449804 7.861238069506537 0 0 0
271 1 6.292350614533709 15.717652575758946 6.292350614533704 0 0 0
272 1 7.862407712526016 17.29020861951658 7.8624077125260055 0 0 0
273 1 9.434036077908877 15.719171528169325 6.291430313089367 0 0 0
274 1 11.005605597323633 17.28905233503906 7.863546611389948 0 0 0
275 1 12.57546738556437 15.717525542653389 6.292028385110156 0 0 0
276 1 14.147040237637501 17.28965269105301 7.861878255008566 0 0 0
277 1 15.718650909509511 15.718647552311007 6.290823468088546 0 0 0
278 1 17.288705567353883 17.28870221997397 7.863353052187426 0 0 0
279 1 18.86357530532122 15.71978317392436 6.288926554803942 0 0 0
280 1 20.435577745454914 17.291735746933643 7.860869741394433 0 0 0
281 1 22.0087978240614 18.86440707484947 6.2886167953501 -1 0 0
282 1 1.5718681292827708 20.436892321982114 7.860641348624622 0 0 0
283 1 3.1445288148964874 18.86459971091778 6.288765989880698 0 0 0
284 1 4.716742449876816 20.43706053921642 7.860847615052088 0 0 0
285 1 6.289375680204357 18.863936128688657 6.289375680204362 0 0 0
286 1 7.860480769920601 20.437187837824844 7.860480769920603 0 0 0
287 1 9.433184775745156 18.863927684920277 6.289349409596299 0 0 0
288 1 11.00474688735012 20.436453379026524 7.86086503897539 0 0 0
289 1 12.576168239976955 18.863632252762326 6.289150546169718 0 0 0
290 1 14.14818818897475 20.435996915404772 7.860624726812782 0 0 0
291 1 15.719786497511866 18.86357195388561 6.288926573134091 0 0 0
292 1 17.29173907864381 20.43557440010494 7.860869751096943 0 0 0
293 1 18.863393788383032 18.863390463834453 6.289302443863699 0 0 0
294 1 20.4363316673621 20.43632832778386 7.860656394330725 0 0 0
295 1 22.009016330827265 22.009012973573032 9.432568122650405 -1 -1 0
296 1 1.5721910433317356 1.5721876754121844 11.004570064467172 0 0 0
297 1 3.144434553328253 3.7280760961634724e-05 9.432682973005292 0 0 0
298 1 4.717068042868745 1.5729515176607902 11.00472626770091 0 0 0
299 1 6.288937887661887 0.00035753907184595034 9.432858309518531 0 0 0
300 1 7.861208836690455 1.5734761703959803 11.004858251287867 0 0 0
301 1 9.432313093024236 0.00048584461169891275 9.432313093024234 0 0 0
302 1 11.004586813814898 1.5720940172305584 11.004586813814896 0 0 0
303 1 12.576602331295492 22.00911278454852 9.43246377307497 0 -1 0
304 1 14.14856307911387 1.5719624137122579 11.004418845400531 0 0 0
305 1 15.720272131924435 22.008474085877534 9.43241413027692 0 -1 0
306 1 17.292233483981295 1.5714752541673027 11.004510589462853 0 0 0
307 1 18.864178639797284 22.008430996884016 9.432616695088425 0 -1 0
308 1 20.436765416573817 1.5716231032481678 11.004495314907743 0 0 0
309 1 4.063856802605336e-05 3.144431182135484 9.432682969370045 0 0 0
310 1 1.5729548705158043 4.717064671518584 11.004726268817748 0 0 0
311 1 3.1452677364168267 3.145264372521293 9.432999956274164 0 0 0
312 1 4.718636064930695 4.718632718246383 11.005143771356042 0 0 0
313 1 6.29017328810271 3.1467908989533364 9.433633532236016 0 0 0
314 1 7.864166760125844 4.721777647283896 11.005831047700477 0 0 0
315 1 9.43284278718434 3.146424909207267 9.432842787184338 0 0 0
316 1 11.00524677693665 4.7137575279975135 11.005246776936644 0 0 0
317 1 12.577309717503558 3.1458369023524386 9.432867492885261 0 0 0
318 1 14.148076783903155 4.718886263248913 11.004539826681869 0 0 0
319 1 15.720391883540591 3.145065062350192 9.432838088503013 0 0 0
320 1 17.29189316796414 4.7174156582774005 11.004853660742594 0 0 0
321 1 18.864550289180695 3.1443603748532536 9.432756577626298 0 0 0
322 1 20.436979024595853 4.716594344203065 11.004598438140876 0 0 0
323 1 0.00036089598368448046 6.288934512366403 9.432858297432038 0 0 0
324 1 1.573479500393669 7.861205462114653 11.004858251965326 0 0 0
325 1 3.146794233558112 6.29016993007829 9.43363352844574 0 0 0
326 1 4.721780955704756 7.864163413994265 11.005831050299099 0 0 0
327 1 6.293696016356529 6.293692688377194 9.435854563641486 0 0 0
328 1 7.875219231514655 7.87521591537496 11.008439467733828 0 0 0
329 1 9.434042675989298 6.296729814081633 9.43404267598928 0 0 0
330 1 11.008142353411095 7.829860523486254 11.00814235341107 0 0 0
331 1 12.579163174052772 6.296916018412723 9.43485927873587 0 0 0
332 1 14.14406065374613 7.872593376536138 11.00339306581386 0 0 0
333 1 15.719174892051184 6.291426988843105 9.434036066121843 0 0 0
334 1 17.28905570643978 7.863543262541194 11.005605584808213 0 0 0
335 1 18.86393105242367 6.289346048875774 9.433184760275237 0 0 0
336 1 20.436456737892673 7.860861663520483 11.00474687978019 0 0 0
337 1 0.000489183772939453 9.432309728193312 9.4323130736711 0 0 0
338 1 1.5720973296819984 11.004583450369834 11.004586814661897 0 0 0
339 1 3.146428222910357 9.432839433025327 9.432842780437902 0 0 0
340 1 4.713760813420737 11.005243423066824 11.005246782220349 0 0 0
341 1 6.296733114505251 9.434039337419748 9.434042675492787 0 0 0
342 1 7.829863809795099 11.008139017631049 11.008142362455217 0 0 0
343 1 9.46017546062195 9.460172138378397 9.460175460621949 0 0 0
344 1 20.436136700878826 20.436133386832466 20.43613670087883 0 0 0
345 1 12.563346023594956 9.464453831107576 9.464457139753886 0 0 0
346 1 14.19320877260302 11.003762095047943 11.00376542030883 0 0 0
347 1 15.71444460947405 9.435048705974435 9.435052027926043 0 0 0
348 1 17.294797920282463 11.001302947076887 11.00130629406328 0 0 0
349 1 18.864683954962864 9.431664840290688 9.431668182101447 0 0 0
350 1 20.437477835192837 11.003740515840079 11.00374387808944 0 0 0
351 1 22.00911612303702 12.57659898007095 9.43246375442602 -1 0 0
352 1 1.5719657329761054 14.148559722687407 11.004418845878664 0 0 0
353 1 3.145840209482465 12.577306366880723 9.432867487853212 0 0 0
354 1 4.718889563844326 14.14807342447561 11.004539835641642 0 0 0
355 1 6.29691931815066 12.579159822258056 9.434859283988832 0 0 0
356 1 7.872596679563012 14.144057297093894 11.003393075493968 0 0 0
357 1 9.46445714945776 12.563342672603028 9.46445714945773 0 0 0
358 1 11.003765410527208 14.193205429501667 11.003765410527159 0 0 0
359 1 12.577369917481855 12.577366568091907 9.387900731265482 0 0 0
360 1 14.116693325901556 14.116689966525588 11.017745836785362 0 0 0
361 1 15.708525660781842 12.577711748702118 9.437044537298956 0 0 0
362 1 17.28421122893798 14.146239723371828 11.00192374184324 0 0 0
363 1 18.86221268990342 12.576527592943451 9.432979073803963 0 0 0
364 1 20.435250005695075 14.148177771312534 11.00371881586393 0 0 0
365 1 22.008477424674574 15.720268790373245 9.432414118888351 -1 0 0
366 1 1.5714785934442461 17.29223013505664 11.004510590104253 0 0 0
367 1 3.145068390274447 15.720388534089983 9.432838088673297 0 0 0
368 1 4.717418995976933 17.29188980418354 11.004853668122733 0 0 0
369 1 6.29143031308937 15.719171528169307 9.434036077908887 0 0 0
370 1 7.8635466113899515 17.28905233503905 11.005605597323651 0 0 0
371 1 9.435052037843947 15.714441245092038 9.435052037843947 0 0 0
372 1 11.001306304236415 17.294794553155196 11.001306304236417 0 0 0
373 1 12.577715111347125 15.708522286163022 9.437044544541422 0 0 0
374 1 14.146243092412577 17.284207852613164 11.001923747546481 0 0 0
375 1 15.709109489165947 15.70910612317706 9.440861560482118 0 0 0
376 1 17.288009232545544 17.288005871822094 11.005081413202051 0 0 0
377 1 18.861390926191817 15.718868356167745 9.432898568145953 0 0 0
378 1 20.434762920627595 17.2911563657678 11.004528259374181 0 0 0
379 1 22.008434345479664 18.86417529562414 9.432616694412289 -1 0 0
380 1 1.5716264622186447 20.436762060962767 11.004495315835072 0 0 0
381 1 3.1443637310172754 18.864546933572484 9.43275658338861 0 0 0
382 1 4.716597717494593 20.436975663347067 11.004598440178485 0 0 0
383 1 6.289349409596288 18.863927684920288 9.433184775745156 0 0 0
384 1 7.86086503897538 20.43645337902653 11.004746887350121 0 0 0
385 1 9.431668204300566 18.86468058148077 9.431668204300557 0 0 0
386 1 11.003743888190796 20.43747448287062 11.003743888190787 0 0 0
387 1 12.576530950894092 18.862209321678474 9.432979093415401 0 0 0
388 1 14.148181128503772 20.43524665685707 11.003718824568374 0 0 0
389 1 15.71887171046765 18.861387562867016 9.432898577619989 0 0 0
390 1 17.29115971657159 20.43475957083581 11.004528264638576 0 0 0
391 1 18.86298298977124 18.86297964359698 9.43291761201089 0 0 0
392 1 20.43600776285716 20.436004412255045 11.00445154818789 0 0 0
393 1 22.00882419591675 22.008820836036115 12.576392506857543 -1 -1 0
394 1 1.572001613469318 1.571998243825851 14.148404959031902 0 0 0
395 1 3.1442566764038853 22.009402825586427 12.57646158807845 0 -1 0
396 1 4.716846727503105 1.5726004176498187 14.148355748666306 0 0 0
397 1 6.288800072154019 3.596631773551474e-05 12.57647595950751 0 0 0
398 1 7.860746069606416 1.5725931988729454 14.148582820630624 0 0 0
399 1 9.43246377307496 22.009112784548527 12.576602331295497 0 -1 0
400 1 11.004418845400528 1.5719624137122539 14.148563079113876 0 0 0
401 1 12.576441676038804 22.00897984635475 12.576441676038803 0 -1 0
402 1 14.148717230752807 1.571028881230016 14.148717230752805 0 0 0
403 1 15.719837756571682 22.00760266392682 12.576160304060577 0 -1 0
404 1 17.292107309683136 1.571138769935312 14.148134849037616 0 0 0
405 1 18.86397306988397 22.008087745830014 12.576256724112021 0 -1 0
406 1 20.43660029844256 1.5714310247665229 14.148302032153975 0 0 0
407 1 22.009406184226172 3.14425330268412 12.57646159599771 -1 0 0
408 1 1.5726037694226798 4.716843348310152 14.14835576476346 0 0 0
409 1 3.1450152523076063 3.1450118883789857 12.576520843530673 0 0 0
410 1 4.718060098275753 4.718056750240768 14.148072324196995 0 0 0
411 1 6.289886182759098 3.1462932861527784 12.576469153740362 0 0 0
412 1 7.862184129877704 4.719688365333784 14.148126788341356 0 0 0
413 1 9.432867492885253 3.1458369023524404 12.577309717503558 0 0 0
414 1 11.00453982668186 4.718886263248928 14.148076783903155 0 0 0
415 1 12.577299059750729 3.143611117210848 12.577299059750723 0 0 0
416 1 14.149382200661767 4.716376988986964 14.149382200661758 0 0 0
417 1 15.720174412037425 3.1445935967548513 12.576270008732628 0 0 0
418 1 17.291701664076523 4.71709025821026 14.14783855926944 0 0 0
419 1 18.86444633116083 3.1440516091474078 12.576376214769743 0 0 0
420 1 20.43668596218711 4.716462362681867 14.148234469430781 0 0 0
421 1 3.931766613346119e-05 6.288796688315826 12.576475970269675 0 0 0
422 1 1.5725965242684325 7.860742691962038 14.148582845654726 0 0 0
423 1 3.1462966150159275 6.289882818649064 12.57646916210998 0 0 0
424 1 4.719691674381635 7.862180782092438 14.148126804975137 0 0 0
425 1 6.2930726255584375 6.293069298525849 12.575959141406807 0 0 0
426 1 7.8719962059835025 7.871992892585552 14.140205231783899 0 0 0
427 1 9.434859278735868 6.296916018412713 12.579163174052795 0 0 0
428 1 11.003393065813851 7.8725933765361 14.144060653746157 0 0 0
429 1 12.579791022854161 6.2863258375317095 12.579791022854165 0 0 0
430 1 14.146054186021228 7.8666496767645855 14.14605418602123 0 0 0
431 1 15.717528907107333 6.2920250654589545 12.575467375957285 0 0 0
432 1 17.28965606037705 7.8618748993642384 14.147040241035201 0 0 0
433 1 18.863635617447112 6.2891471802292305 12.576168241935818 0 0 0
434 1 20.436000271041827 7.8606213449087 14.148188209759711 0 0 0
435 1 22.009116117933953 9.432460393754573 12.576602342286265 -1 0 0
436 1 1.571965723789076 11.004415479887317 14.148563103029185 0 0 0
437 1 3.145840202410093 9.432864129811179 12.577309731050972 0 0 0
438 1 4.718889549988667 11.004536472267477 14.148076805947914 0 0 0
439 1 6.296919308473785 9.434855940768283 12.57916318626933 0 0 0
440 1 7.87259667014741 11.003389727715168 14.14406066918358 0 0 0