LAMMPS data file via write_data, version 2 Aug 2023, timestep = 2800, units = metal

3601 atoms
3 atom types

0.08199945849694673 37.648652541503296 xlo xhi
0.08200371584177994 37.648648284158305 ylo yhi
-15.834197117292916 53.56484911729315 zlo zhi

Masses

1 183.84
2 1.008
3 4.0026

Atoms # atomic

193 1 0.08232554916803501 12.604209685443577 6.244596403976023 0 0 0
2 1 1.6476203993969822 1.6472774911258719 1.5290642949271285 0 0 0
983 1 15.735114351373825 18.865325994106563 3.0860634122555677 0 0 0
4 1 4.778174448039314 1.6472759538583213 1.5290717413143786 0 0 0
205 1 0.08232962455868156 15.734766592285107 6.244597105581523 0 0 0
6 1 7.908732338363931 1.6472771622648283 1.5290839868713229 0 0 0
1055 1 15.73508671025613 18.865325995150744 6.244643337485737 0 0 0
8 1 11.039292150660305 1.6472827106129821 1.529094508507579 0 0 0
909 1 12.60456926653074 18.865325994074613 -0.04155920379022453 0 0 0
10 1 14.169843608713158 1.647286198713985 1.529096386878718 0 0 0
426 1 7.908614200318197 17.30004983014448 17.288647781408073 0 0 0
12 1 17.300392948768728 1.6472878992247915 1.52909484336903 0 0 0
13 1 0.08234381237382758 3.2125511903503488 -0.04161568087706231 0 0 0
14 1 1.647619843435346 4.777821962511007 1.5290725700437857 0 0 0
15 1 3.212901484677893 3.212551262160647 -0.041614307628111295 0 0 0
16 1 4.778175433610138 4.7778224744168405 1.5290753198904816 0 0 0
17 1 6.343459009248746 3.2125486203489517 -0.04160342124925944 0 0 0
18 1 7.90873433559202 4.777829755010956 1.529077396072242 0 0 0
19 1 9.474016403903747 3.2125561097525184 -0.041592345260816115 0 0 0
20 1 11.03928693770844 4.777842328522182 1.5290794766972409 0 0 0
21 1 12.604569188610306 3.2125621813386167 -0.04159052759316164 0 0 0
22 1 14.169840185594367 4.7778503907091485 1.5290783024132322 0 0 0
23 1 15.73511699622407 3.2125654223887254 -0.041590558707977884 0 0 0
24 1 17.30039018020685 4.777852393973536 1.529079731123394 0 0 0
25 1 0.08234288308802812 6.343100422465861 -0.041604065100927026 0 0 0
26 1 1.6476206818246053 7.908374461297344 1.5290795312701788 0 0 0
27 1 3.2129013485265285 6.343099489856686 -0.04160273154415097 0 0 0
28 1 4.778178968200585 7.9083776345215275 1.529076136800643 0 0 0
29 1 6.343458537574801 6.343101307745397 -0.04160210837476268 0 0 0
30 1 7.908733028630628 7.908387253227759 1.529074201400477 0 0 0
31 1 9.474011729854439 6.343114687570283 -0.041605823015661576 0 0 0
32 1 11.039283959754744 7.908396601860436 1.5290768279129954 0 0 0
33 1 12.604563645308527 6.343125821515442 -0.04160510250040051 0 0 0
34 1 14.169836749250173 7.908402462897901 1.5290824777534329 0 0 0
35 1 15.73511688477024 6.343134288136997 -0.041600293773460674 0 0 0
36 1 17.30038869614686 7.908408201939987 1.5290918285436232 0 0 0
37 1 0.08234241306467993 9.47365321609869 -0.04159549816287483 0 0 0
38 1 1.6476198770834194 11.03893181383407 1.5290805120098372 0 0 0
39 1 3.2129013127424515 9.473654201766724 -0.0415948002464121 0 0 0
40 1 4.778178129416233 11.038934504192591 1.5290796616302171 0 0 0
41 1 6.343457920644243 9.473660360453389 -0.04160212191067974 0 0 0
42 1 7.908732681012204 11.038941071622574 1.5290794146682174 0 0 0
43 1 9.474013066006139 9.473670832346297 -0.04160762056155499 0 0 0
44 1 11.03928450259625 11.038948843366244 1.529085212972785 0 0 0
45 1 12.604564483871028 9.473683411644549 -0.04159755333909108 0 0 0
46 1 14.16983668422477 11.038956504818426 1.5291023091252456 0 0 0
47 1 15.735122062333444 9.473694740836228 -0.041581755222321236 0 0 0
48 1 17.300392671762765 11.038956785057456 1.5291262926554448 0 0 0
49 1 0.08234127356849663 12.604209972309125 -0.041594219581351684 0 0 0
50 1 1.6476203431237284 14.169490197179005 1.5290781295447406 0 0 0
51 1 3.2129017251698633 12.604210935056923 -0.04159645807503298 0 0 0
52 1 4.778178501260121 14.169491216943 1.5290815110221179 0 0 0
53 1 6.343460691374095 12.604216715105306 -0.04159966142421067 0 0 0
54 1 7.908734294150562 14.16949479170303 1.5290845725277824 0 0 0
55 1 9.474018431803167 12.604223563461183 -0.04159579632053041 0 0 0
56 1 11.03928378301314 14.169500643102245 1.529101136985722 0 0 0
57 1 12.604571886884735 12.604235830286799 -0.0415770226744425 0 0 0
58 1 14.169841801285596 14.169504688688399 1.5291281224511142 0 0 0
59 1 15.735131516748035 12.604242785147266 -0.041553178348648225 0 0 0
60 1 17.300395278535834 14.16951061901148 1.52914494727999 0 0 0
425 1 6.343351221659075 15.73477237332421 15.710943698924657 0 0 0
62 1 1.6476198971085536 17.300046938802133 1.5290780619543005 0 0 0
63 1 3.2129020669044 15.734768210350078 -0.04159728888292775 0 0 0
64 1 4.778177775967723 17.300048671139663 1.5290831343892108 0 0 0
65 1 6.343460039350995 15.734772670581426 -0.04159193263612129 0 0 0
66 1 7.908736286647497 17.30004970853359 1.529090784641249 0 0 0
67 1 9.474019925706859 15.73477639587637 -0.041586361358450584 0 0 0
68 1 11.039285932392845 17.30004957670941 1.5291107142324345 0 0 0
69 1 12.604574547651916 15.734779498594392 -0.04156486078185567 0 0 0
70 1 14.169845784459676 17.30005158742547 1.529123166450695 0 0 0
71 1 15.735127614160294 15.734779496625514 -0.041548679965335164 0 0 0
72 1 17.300411383419792 17.30006573650994 1.5291160355368447 0 0 0
424 1 4.778059627477479 17.300049048443697 17.288645680992744 0 0 0
74 1 1.647608681493784 1.647278318142231 4.667567848533651 0 0 0
423 1 3.212799727026386 15.734768506650775 15.71094256275344 0 0 0
76 1 4.778164121989811 1.6472788211350917 4.667570037365744 0 0 0
313 1 0.08227807543636562 6.34310513928466 12.555531413456881 0 0 0
78 1 7.908722253518523 1.647276821781898 4.66757709513919 0 0 0
373 1 0.08225085012566233 3.212557303449166 15.710925955389476 0 0 0
80 1 11.03928046150404 1.647279966523219 4.667584006424581 0 0 0
181 1 0.0823252749737084 9.4736541146124 6.244593247486473 0 0 0
82 1 14.169834378003362 1.647284404892543 4.6675854841294795 0 0 0
85 1 0.08233941586011131 3.2125498882373686 3.0860007641702367 0 0 0
84 1 17.30038321390143 1.6472859117014464 4.667583609413354 0 0 0
422 1 1.6475068871862188 17.300045186122418 17.288645665911407 0 0 0
86 1 1.647609469836206 4.777827644872356 4.6675710920781865 0 0 0
87 1 3.212893109569528 3.212550218510651 3.086002881012956 0 0 0
88 1 4.778165604654562 4.777828091921365 4.667571283692136 0 0 0
89 1 6.343450234366314 3.2125514676924203 3.0860067664655557 0 0 0
90 1 7.908717947314072 4.777826064666716 4.66757145029695 0 0 0
91 1 9.474007100809642 3.2125545892015865 3.0860112721817146 0 0 0
92 1 11.039273265870255 4.777835454726456 4.667571158813539 0 0 0
93 1 12.604562853299711 3.2125649615938 3.0860133878390945 0 0 0
94 1 14.169824928532806 4.777839265332118 4.66757721537786 0 0 0
95 1 15.735112651436292 3.2125702976426003 3.0860144769386757 0 0 0
96 1 17.30037936390833 4.777844512651934 4.667578628291506 0 0 0
421 1 0.08224470302838593 15.734769004741887 15.710943653133503 0 0 0
98 1 1.647609364064777 7.908377715146351 4.667572512397296 0 0 0
99 1 3.2128935632657933 6.3430996464424165 3.086004735310131 0 0 0
100 1 4.778161521363392 7.90837735820136 4.667570034851273 0 0 0
101 1 6.343448841622106 6.343101784655927 3.0860027489080935 0 0 0
102 1 7.90871422397915 7.9083806799796506 4.66756968984289 0 0 0
103 1 9.474001734772845 6.343111367915378 3.0860054467911273 0 0 0
104 1 11.039270515712325 7.908390560711252 4.667573876776545 0 0 0
105 1 12.604556517114217 6.343121494657455 3.086006590135006 0 0 0
106 1 14.169822690090369 7.908392910382569 4.667582492024545 0 0 0
107 1 15.735107805138059 6.343124832107874 3.086014366772741 0 0 0
108 1 17.300376449190086 7.908399048532815 4.66758858630499 0 0 0
420 1 17.300277788853226 14.169495763777805 17.288652045993853 0 0 0
110 1 1.6476102507765993 11.038930234077752 4.667574811979711 0 0 0
111 1 3.2128934338258275 9.47365497023166 3.086006700077263 0 0 0
112 1 4.778160120219571 11.038934744778702 4.667571850244512 0 0 0
113 1 6.343447983426509 9.473657025214703 3.0860063837156986 0 0 0
114 1 7.908712283200727 11.03893818027765 4.667576292277491 0 0 0
115 1 9.474000873932363 9.47366643560055 3.086009598021002 0 0 0
116 1 11.039264270504075 11.038939501053438 4.667585016703968 0 0 0
117 1 12.60455220500359 9.473671052211452 3.086015265937642 0 0 0
118 1 14.169818545854932 11.03894734023916 4.6675971192391845 0 0 0
119 1 15.735104557634457 9.473676416364446 3.086027720807203 0 0 0
120 1 17.30037674192684 11.03894690205112 4.667614421967001 0 0 0
419 1 15.73501623841762 12.604216392106073 15.710947558654922 0 0 0
122 1 1.6476088436415441 14.169489554365834 4.667571849387908 0 0 0
123 1 3.2128924212089687 12.604211185193504 3.0860081851077767 0 0 0
124 1 4.77815986335391 14.16949008908088 4.667573871429719 0 0 0
125 1 6.343448306933363 12.604215649091886 3.0860083308369366 0 0 0
126 1 7.90871290665385 14.169490690547757 4.667584421182016 0 0 0
127 1 9.473998596127773 12.604217731725273 3.0860162015608985 0 0 0
128 1 11.039268381411617 14.169498718468581 4.667594168560542 0 0 0
129 1 12.604549523767812 12.604221204531427 3.0860349410673753 0 0 0
130 1 14.169819126966615 14.169496100335621 4.667615967972674 0 0 0
131 1 15.735110220895782 12.60422881626934 3.0860571581540492 0 0 0
132 1 17.300379346932747 14.169501964783278 4.667632742403658 0 0 0
418 1 14.16972363032876 14.169494039267995 17.28865017262314 0 0 0
134 1 1.6476090025865249 17.300044798787056 4.667573313004526 0 0 0
135 1 3.2128939578673537 15.734768944220406 3.086007119136942 0 0 0
136 1 4.778159394379647 17.300048657472914 4.667574444385545 0 0 0
137 1 6.343450328466105 15.734769562096242 3.086014202682935 0 0 0
138 1 7.908713394562518 17.300049190272183 4.667588999632931 0 0 0
139 1 9.473998190069205 15.734771957705995 3.0860285702998644 0 0 0
140 1 11.039269100840196 17.300049771509567 4.667600163637808 0 0 0
141 1 12.604554832462565 15.73477621918101 3.08604403647845 0 0 0
142 1 14.169820204118535 17.300049543154394 4.667621030598304 0 0 0
143 1 15.735110460807238 15.734783909568907 3.0860592382360035 0 0 0
144 1 17.30038777520121 17.30005971726757 4.667622725600743 0 0 0
385 1 0.08225051709631681 6.34311082539693 15.710929676616168 0 0 0
146 1 1.6475917805951037 1.6472802520160683 7.822451004494208 0 0 0
417 1 12.60445895189352 12.604217144734719 15.710944995108505 0 0 0
148 1 4.778148358150609 1.6472794996526932 7.8224542982294825 0 0 0
61 1 0.0823411500024006 15.734766952317386 -0.041595119838163434 0 0 0
150 1 7.908704101336499 1.6472790384521485 7.8224592667807125 0 0 0
1053 1 12.604534004687784 18.86532599515672 6.2446300438878835 0 0 0
152 1 11.039259618987 1.647277889194027 7.822466972578485 0 0 0
416 1 11.039169972942748 14.169495784942717 17.288646002765 0 0 0
154 1 14.16981534251561 1.6472823968045107 7.822470076659716 0 0 0
133 1 0.08233767462036176 15.73476704156747 3.0860086184205633 0 0 0
156 1 17.300364238015405 1.6472823654689628 7.822468928880213 0 0 0
415 1 9.473908756326683 12.604217124779272 15.710940200848096 0 0 0
158 1 1.6475917334081638 4.777830294281699 7.822456477512903 0 0 0
159 1 3.21287931352358 3.212554934793113 6.244589933232699 0 0 0
160 1 4.778147654836463 4.777829011115338 7.822456531255143 0 0 0
161 1 6.343435918748643 3.2125519341185953 6.2445959693881425 0 0 0
162 1 7.9087033656013865 4.777829503849555 7.822455817320242 0 0 0
163 1 9.473991768594425 3.2125531229890107 6.244598141801895 0 0 0
164 1 11.039256115529197 4.777828348321493 7.8224571178466125 0 0 0
165 1 12.604544426482988 3.212557311086012 6.244599560264677 0 0 0
166 1 14.169808834820207 4.777836335135826 7.822457761573728 0 0 0
167 1 15.73509650135916 3.212562420119229 6.244598934925034 0 0 0
168 1 17.300361659674653 4.777834897567761 7.822462803176769 0 0 0
981 1 12.604558264546172 18.865325994605303 3.0860461592511235 0 0 0
170 1 1.6475916805306656 7.908380013378753 7.822459903169565 0 0 0
171 1 3.212877326588719 6.343104047529327 6.244594589964359 0 0 0
172 1 4.778143873720036 7.9083806275769515 7.82245605210258 0 0 0
173 1 6.3434312902561425 6.3431021527980045 6.244591869440647 0 0 0
174 1 7.908695258982488 7.908381577874305 7.822453577003868 0 0 0
175 1 9.473985739108292 6.343106891596009 6.24458864296455 0 0 0
176 1 11.03924757178847 7.908379986301179 7.822457359772026 0 0 0
177 1 12.604538413127768 6.343109911959695 6.244595098584241 0 0 0
178 1 14.16980095428593 7.908385892188708 7.82246383593195 0 0 0
179 1 15.73509444928362 6.3431157723017115 6.244599577472072 0 0 0
180 1 17.3003564926459 7.908389783078101 7.822467320117222 0 0 0
901 1 0.08233958753875703 18.86532599425656 -0.041594879151686144 0 0 0
182 1 1.647591046051939 11.038931551004989 7.822460723725383 0 0 0
183 1 3.212877439784262 9.473657099594904 6.244594617652601 0 0 0
184 1 4.778141011291369 11.03893225202283 7.822461061441366 0 0 0
185 1 6.343426395557458 9.473655069362337 6.244592586467781 0 0 0
186 1 7.908691360431301 11.038936688770454 7.822456506946399 0 0 0
187 1 9.47397803251896 9.47366046025033 6.244594868990201 0 0 0
188 1 11.039240349799002 11.038934659105358 7.822466639159081 0 0 0
189 1 12.60453152518279 9.473663391442873 6.244603079233413 0 0 0
190 1 14.169798712468664 11.038942684590626 7.822477571058372 0 0 0
191 1 15.73508588043738 9.473668833538794 6.244615426946467 0 0 0
192 1 17.3003586819882 11.03894245400017 7.822488505072914 0 0 0
169 1 0.08232432428661254 6.343103145580628 6.244594422903885 0 0 0
194 1 1.6475913339470265 14.169488244891028 7.822464405868403 0 0 0
195 1 3.2128746530505397 12.60421156833547 6.244597255785584 0 0 0
196 1 4.778135510908218 14.169490802028598 7.822458943877611 0 0 0
197 1 6.343421624652941 12.604210184104742 6.2445964802324445 0 0 0
198 1 7.908683264786232 14.169489757892032 7.822464046545752 0 0 0
199 1 9.473979645366859 12.604216664747618 6.244599354487694 0 0 0
200 1 11.039241213654247 14.169487846396592 7.822478350191897 0 0 0
201 1 12.60453079319971 12.604216961188277 6.24462322008024 0 0 0
202 1 14.169802231099528 14.169499193391392 7.822488331010642 0 0 0
203 1 15.735089650509662 12.604221150406664 6.244632887927902 0 0 0
204 1 17.30035238273989 14.169499976504959 7.8225070863738795 0 0 0
337 1 0.08227842849348786 12.604208120612373 12.555540852073511 0 0 0
206 1 1.6475908783359299 17.300047509120848 7.822464141982056 0 0 0
207 1 3.2128727299407935 15.734768272891014 6.244595292745931 0 0 0
208 1 4.778136648243748 17.30004709028797 7.82245869739899 0 0 0
209 1 6.343422222580799 15.734767769385073 6.244599389093316 0 0 0
210 1 7.908685402430473 17.30004828705312 7.822468590164487 0 0 0
211 1 9.473978084868701 15.734770186825545 6.24461184612976 0 0 0
212 1 11.039244824762287 17.300049277953345 7.822478796246601 0 0 0
213 1 12.604529565288459 15.734770616291312 6.244629898473472 0 0 0
214 1 14.16980107057491 17.30004580303708 7.822498370281843 0 0 0
215 1 15.735093246339217 15.734779195275632 6.244637119411894 0 0 0
216 1 17.300357963286753 17.300052147031302 7.8225061826529645 0 0 0
109 1 0.08233714669992902 9.473652854589721 3.0860071842244956 0 0 0
218 1 1.6475702222140185 1.6472791893708028 10.977822164210085 0 0 0
325 1 0.08227661425444419 9.47365911706512 12.555534498086407 0 0 0
220 1 4.778124709403004 1.6472796261578362 10.977826784883588 0 0 0
97 1 0.08233825971762627 6.343098704191778 3.086003834383128 0 0 0
222 1 7.908680697641676 1.647279662031794 10.977833079083807 0 0 0
265 1 0.08230484331997642 12.604208467862946 9.400124059487489 0 0 0
224 1 11.039234986509065 1.647280912196974 10.977838965424656 0 0 0
277 1 0.08230511379773156 15.7347675554147 9.400131518963766 0 0 0
226 1 14.16978930709028 1.6472795971936047 10.97784291909566 0 0 0
1127 1 15.735063789415966 18.865325995568202 9.400166761955775 0 0 0
228 1 17.30034308117314 1.6472830959134002 10.977843129960775 0 0 0
414 1 7.908618165639556 14.169493382188643 17.288645458235138 0 0 0
230 1 1.6475695265007815 4.777830431325847 10.977828749044203 0 0 0
231 1 3.212858339302253 3.2125555671803294 9.40011625838131 0 0 0
232 1 4.778125277959301 4.77783065568051 10.977831303339576 0 0 0
233 1 6.343413428436734 3.2125556632413934 9.40012042987799 0 0 0
234 1 7.908681308128548 4.777831350745411 10.97783007756455 0 0 0
235 1 9.473969829025748 3.212553317294862 9.400125663342756 0 0 0
236 1 11.039234633176042 4.7778341574103464 10.977832954048193 0 0 0
237 1 12.604524399588096 3.2125560330840273 9.400127569183898 0 0 0
238 1 14.169787533681005 4.777831676860249 10.9778352108393 0 0 0
239 1 15.735075724312921 3.2125574255175198 9.40012800875503 0 0 0
240 1 17.300341701571107 4.777835311364379 10.977838999110707 0 0 0
413 1 6.343355979034494 12.604214812900866 15.710942316478606 0 0 0
242 1 1.6475680801091444 7.908379766263073 10.977835613623002 0 0 0
243 1 3.212860673139256 6.343104769621461 9.400120948107965 0 0 0
244 1 4.778124224940779 7.908381102469311 10.97783394714109 0 0 0
245 1 6.343413171243802 6.343105423378311 9.400120778197829 0 0 0
246 1 7.908679326516935 7.908384269380046 10.977828916482322 0 0 0
247 1 9.473966546151736 6.343105190037511 9.400117558641535 0 0 0
248 1 11.039227941498394 7.908383126669941 10.977831201779873 0 0 0
249 1 12.604519523606278 6.343108815699729 9.40012049579018 0 0 0
250 1 14.169780777065881 7.908382253760849 10.977835933783163 0 0 0
251 1 15.73507408479213 6.343108332876082 9.400123906300587 0 0 0
252 1 17.30033543153838 7.908386254178895 10.977837388440143 0 0 0
241 1 0.08230203294101245 6.343105669756206 9.400122102975887 0 0 0
254 1 1.6475683485460682 11.038933847564378 10.977836334720735 0 0 0
255 1 3.212857019166769 9.473653687182901 9.400124213015516 0 0 0
256 1 4.778118919303484 11.038933973600754 10.977835038567811 0 0 0
257 1 6.343408544677823 9.473658674939704 9.400121510971942 0 0 0
258 1 7.908669146532811 11.03893595962146 10.977832327473358 0 0 0
259 1 9.473958417603303 9.473656389002642 9.400120401404793 0 0 0
260 1 11.039220775272291 11.03893673815078 10.977836210882447 0 0 0
261 1 12.60451283205883 9.473662127873604 9.40012499571684 0 0 0
262 1 14.169773554503402 11.038934151207608 10.977845619962228 0 0 0
263 1 15.73506580285602 9.473663679797117 9.400133462654228 0 0 0
264 1 17.300334075216842 11.038940607775363 10.977849395477461 0 0 0
412 1 4.778066414316886 14.169494606043322 17.288643503847734 0 0 0
266 1 1.6475664317533403 14.16948627264486 10.977840525746885 0 0 0
267 1 3.212855191126762 12.604211610993325 9.400126507426048 0 0 0
268 1 4.778118193163204 14.169491235400914 10.977838289543842 0 0 0
269 1 6.343399745102589 12.60421124570384 9.400125474755955 0 0 0
270 1 7.908668378752256 14.169493081306575 10.97783283606389 0 0 0
271 1 9.473950507275697 12.60421283941291 9.400124863026448 0 0 0
272 1 11.039212219807526 14.16948914846468 10.977846080933194 0 0 0
273 1 12.60450970046638 12.604218430340696 9.400134523910888 0 0 0
274 1 14.169771179872814 14.169493433907762 10.97785458651749 0 0 0
275 1 15.73506357731807 12.604214756663588 9.400155238126743 0 0 0
276 1 17.30033055091695 14.169495709552148 10.977864889093444 0 0 0
411 1 3.212801315127469 12.604215053948707 15.710939084189649 0 0 0
278 1 1.6475662892790264 17.300046171607995 10.977845246235864 0 0 0
279 1 3.2128516509221092 15.734768039230039 9.40012845353784 0 0 0
280 1 4.778111892523544 17.300045238455883 10.977835909035269 0 0 0
281 1 6.3433998374935054 15.734768184539245 9.400123185034301 0 0 0
282 1 7.908658656150166 17.300046536946102 10.977840653868082 0 0 0
283 1 9.473951341396896 15.734772612556231 9.400127779232314 0 0 0
284 1 11.039209855475574 17.30004958886632 10.977847121348633 0 0 0
285 1 12.604503541807102 15.734771707303134 9.400147850197264 0 0 0
286 1 14.169770601901076 17.300048026428616 10.977862421081474 0 0 0
287 1 15.735066951931609 15.734773505353525 9.40015995903532 0 0 0
288 1 17.30033086783583 17.300050872467292 10.977873823598685 0 0 0
410 1 1.6475078725710672 14.16949292865935 17.288643308969128 0 0 0
290 1 1.6475435933339293 1.6472799798700453 14.133222947103578 0 0 0
409 1 0.08224561325754695 12.604217243677041 15.710939873384683 0 0 0
292 1 4.7780984900986265 1.6472796358538029 14.13322570936934 0 0 0
408 1 17.300281535229054 11.038943587581768 17.288648043425685 0 0 0
294 1 7.908652139997664 1.6472794423501536 14.133232273639441 0 0 0
253 1 0.08230450558331374 9.473653190104406 9.400125623721639 0 0 0
296 1 11.039209202259935 1.6472817250421465 14.133237618166971 0 0 0
121 1 0.08233885862186388 12.604208817601952 3.0860087836185444 0 0 0
298 1 14.169762200148824 1.647282743496672 14.133242527239062 0 0 0
407 1 15.73501892724391 9.47366404443765 15.710943153272638 0 0 0
300 1 17.300314135239383 1.6472828379912652 14.133245126921626 0 0 0
301 1 0.08227939575197576 3.212556417762604 12.55552451117946 0 0 0
302 1 1.6475427484640597 4.777832065698554 14.133228167688996 0 0 0
303 1 3.212834975124123 3.2125557155980293 12.555524996330798 0 0 0
304 1 4.778097321310617 4.7778321575750615 14.133229770329264 0 0 0
305 1 6.343390610961066 3.212555601792556 12.555528013555778 0 0 0
306 1 7.908652075274245 4.777832478294394 14.133235219725528 0 0 0
307 1 9.473943594426846 3.212556577861924 12.555535108157313 0 0 0
308 1 11.039208293526587 4.777835467411345 14.133235309316776 0 0 0
309 1 12.604497932188352 3.2125584849817295 12.555539276018965 0 0 0
310 1 14.169760790532761 4.777838052827385 14.133237555159287 0 0 0
311 1 15.735051084879888 3.2125594206468913 12.555540289519499 0 0 0
312 1 17.30031504947622 4.777836117639534 14.133239972559199 0 0 0
406 1 14.169727833772331 11.038944284415848 17.288645308000543 0 0 0
314 1 1.6475415955152501 7.908385230086379 14.133232805116489 0 0 0
315 1 3.2128333043099833 6.343107543314126 12.555530554495896 0 0 0
316 1 4.778096802946264 7.908383232722366 14.133236674419306 0 0 0
317 1 6.343390564844113 6.343108759536681 12.555530265630008 0 0 0
318 1 7.908653493526898 7.908384858889728 14.133234790759586 0 0 0
319 1 9.473940287311514 6.343107757744416 12.555534631568824 0 0 0
320 1 11.039205910846032 7.908388554406221 14.133235297065314 0 0 0
321 1 12.604495253408668 6.343108236107499 12.55553261609553 0 0 0
322 1 14.169757484416428 7.908387512977046 14.133238446149049 0 0 0
323 1 15.73505155379147 6.343109022589004 12.555536442958571 0 0 0
324 1 17.30031132334912 7.908385170226243 14.133241407563592 0 0 0
911 1 15.735139910931524 18.865325992083516 -0.04155405806443769 0 0 0
326 1 1.6475399894592075 11.038934374423885 14.13323947541264 0 0 0
327 1 3.2128329919798344 9.473658060601656 12.555534284957563 0 0 0
328 1 4.778095614573591 11.038936271227147 14.13323844682211 0 0 0
329 1 6.343385816008734 9.473658648054748 12.555534468346268 0 0 0
330 1 7.9086493028267375 11.038938913561058 14.133234849344676 0 0 0
331 1 9.47393746890732 9.473659032013579 12.555533576081658 0 0 0
332 1 11.039197563709013 11.038938196333278 14.133238104934946 0 0 0
333 1 12.6044901743698 9.473660207121323 12.555534712368058 0 0 0
334 1 14.169753526580669 11.038940040004984 14.133241203335642 0 0 0
335 1 15.735045485604733 9.473661869668994 12.555536026336469 0 0 0
336 1 17.300309010155274 11.038938438022065 14.133245171025662 0 0 0
157 1 0.08232196046831225 3.2125546271694576 6.244589114628357 0 0 0
338 1 1.6475380222272922 14.169490059671896 14.133239475068928 0 0 0
339 1 3.21282959778943 12.604209418273937 12.555537519685418 0 0 0
340 1 4.778086852187573 14.16949088817923 14.133242010067434 0 0 0
341 1 6.343381065452152 12.604214404707616 12.555535724620757 0 0 0
342 1 7.9086424731712714 14.169494073817834 14.13323863993696 0 0 0
343 1 9.473929764652938 12.604211870158993 12.555537412133498 0 0 0
344 1 11.039193593523391 14.169492536203496 14.133243792418593 0 0 0
345 1 12.604483590776065 12.604214767957718 12.555540996680138 0 0 0
346 1 14.169747460829313 14.169491911178854 14.133248613117573 0 0 0
347 1 15.735041281778908 12.604214591160535 12.555551029131538 0 0 0
348 1 17.300304620754922 14.169490958240335 14.133253957451695 0 0 0
349 1 0.08227865964751854 15.73476916998435 12.555539278424709 0 0 0
350 1 1.6475383551563367 17.300046602181997 14.133246616210778 0 0 0
351 1 3.2128278353257973 15.734768014371719 12.555542177056505 0 0 0
352 1 4.778090447807016 17.30005088893468 14.133239212595436 0 0 0
353 1 6.343375313258755 15.734766454608618 12.555540699681217 0 0 0
354 1 7.908641732644288 17.300046272510237 14.133242877267753 0 0 0
355 1 9.473927319869887 15.734770101454288 12.555538224897091 0 0 0
356 1 11.03918880704138 17.300048305274338 14.133244955032938 0 0 0
357 1 12.604478337067762 15.734769632219328 12.555547204424789 0 0 0
358 1 14.169742664832746 17.300047476209873 14.133253464419962 0 0 0
359 1 15.735035125921934 15.734769585350328 12.55555730862921 0 0 0
360 1 17.30030298141539 17.300047119033593 14.1332609214047 0 0 0
432 1 17.300277659246188 17.30004766254075 17.288654978998927 0 0 0
362 1 1.6475144270260667 1.6472804240660959 17.288624350893322 0 0 0
431 1 15.73500967393887 15.734769905251074 15.710953111145841 0 0 0
364 1 4.778070227207868 1.6472803433056384 17.288624863884383 0 0 0
430 1 14.169721569501112 17.30004937810378 17.288652501212272 0 0 0
366 1 7.908624486365953 1.6472813779570694 17.288629337053273 0 0 0
429 1 12.604455412577686 15.734771305302758 15.71094975545642 0 0 0
368 1 11.039179264012136 1.6472807047106601 17.288636815852048 0 0 0
428 1 11.03916681175102 17.30004946477206 17.288649017967934 0 0 0
370 1 14.169734496729633 1.6472815720522203 17.288641595921515 0 0 0
427 1 9.473903179144642 15.734770790844172 15.71094442588224 0 0 0
372 1 17.300287044445675 1.6472835397009185 17.28864467866422 0 0 0
405 1 12.604466778115539 9.473667389324298 15.7109390143002 0 0 0
374 1 1.6475132086546638 4.777834820650475 17.288626579712684 0 0 0
375 1 3.2128066744542707 3.2125573089371198 15.710926344743976 0 0 0
376 1 4.7780696065918375 4.777834114986671 17.288629143708263 0 0 0
377 1 6.343362277382889 3.2125569290694793 15.710929431070584 0 0 0
378 1 7.9086236660989355 4.777835715509018 17.28863449420211 0 0 0
379 1 9.473917473813575 3.2125594256463734 15.710933587042575 0 0 0
380 1 11.039177456879349 4.7778362719265015 17.288637862515973 0 0 0
381 1 12.604470556766207 3.212559087645426 15.710939610904349 0 0 0
382 1 14.169733167959597 4.777838340119245 17.288640361078727 0 0 0
383 1 15.735022943544893 3.212560633216803 15.710944573466975 0 0 0
384 1 17.300285489617313 4.777840091157789 17.288645291992918 0 0 0
404 1 11.039173597598225 11.038940191195582 17.288646124759627 0 0 0
386 1 1.6475125091451785 7.908388155366107 17.288633070494633 0 0 0
387 1 3.2128049139299164 6.3431105249971536 15.710930929959272 0 0 0
388 1 4.7780659736507705 7.908388031094909 17.288634826511675 0 0 0
389 1 6.343361716900061 6.343110085165853 15.710933347490773 0 0 0
390 1 7.908620459567713 7.90838851949507 17.28863952719201 0 0 0
391 1 9.47391646872924 6.343111195566974 15.710937486285614 0 0 0
392 1 11.039178436399773 7.908391306917301 17.288640481603423 0 0 0
393 1 12.604467406172615 6.343111936409164 15.710941410432016 0 0 0
394 1 14.169729688350237 7.908389783670992 17.288646220443287 0 0 0
395 1 15.735021672578947 6.343115429538789 15.71093988839053 0 0 0
396 1 17.300283721710738 7.908395182897125 17.288645107008588 0 0 0
397 1 0.08224993083278699 9.473660754832322 15.710938181856074 0 0 0
398 1 1.6475082881223555 11.0389443614885 17.2886368159028 0 0 0
399 1 3.2128043694443726 9.473664027479076 15.710936667842924 0 0 0
400 1 4.7780641851848475 11.038940507668723 17.288642264026738 0 0 0
401 1 6.343360698155056 9.47366333076765 15.710936520088353 0 0 0
402 1 7.908622151397079 11.038941586763166 17.288640391176646 0 0 0
403 1 9.473912483569354 9.473661742859894 15.71094165627305 0 0 0
229 1 0.08230309996848627 3.2125543574501796 9.400115027972008 0 0 0
907 1 9.474021328081816 18.865325993888757 -0.041588200069474196 0 0 0
1267 1 9.473902961063121 18.865325997311896 15.71094667660135 0 0 0
977 1 6.343447644801351 18.865325994485794 3.086014153205075 0 0 0
979 1 9.474000390689978 18.8653259944992 3.0860257736817602 0 0 0
1125 1 12.604510168520266 18.865325995667327 9.400146987429405 0 0 0
975 1 3.2128898169119897 18.865325994983774 3.0860081732214377 0 0 0
1191 1 3.2128269396447986 18.865325997121452 12.555542212802164 0 0 0
1051 1 9.473976568946894 18.865325994920056 6.244612825441265 0 0 0
1271 1 15.735009806327001 18.86532599688203 15.710955472707424 0 0 0
1047 1 3.212873956281526 18.86532599564695 6.244596649107898 0 0 0
1263 1 3.2127961265372504 18.865325997722273 15.710947112125643 0 0 0
1261 1 0.0822478540579556 18.865325997999648 15.710947487056162 0 0 0
1117 1 0.08230689042274167 18.865325996239996 9.40012686146607 0 0 0
973 1 0.08234088665068989 18.86532599480824 3.086010368118315 0 0 0
903 1 3.2129044196876264 18.865325994487566 -0.04159937828627003 0 0 0
1193 1 6.34337747579126 18.86532599698365 12.555534858638401 0 0 0
1049 1 6.343422826120376 18.865325995246522 6.244601308311102 0 0 0
1119 1 3.2128522084099456 18.86532599633538 9.400129438607147 0 0 0
1199 1 15.735033296788785 18.865325996144808 12.55556483157559 0 0 0
1265 1 6.343353045206892 18.865325997733997 15.710942876091648 0 0 0
1045 1 0.08232538903597304 18.865325995530828 6.244595192248787 0 0 0
1189 1 0.0822791059634183 18.865325997177834 12.555546313520836 0 0 0
1195 1 9.47392199618468 18.865325996549572 12.555542932367212 0 0 0
1269 1 12.604453413546379 18.86532599710095 15.710948344456622 0 0 0
1123 1 9.473950107066006 18.86532599573888 9.400131975423056 0 0 0
905 1 6.343464769749962 18.865325993942506 -0.04159121918038677 0 0 0
1121 1 6.343396665430798 18.86532599613053 9.400127620358882 0 0 0
1197 1 12.604474237450354 18.86532599632676 12.555549858978072 0 0 0
445 1 0.0822196868227727 3.212557866464126 18.866325143064596 0 0 0
434 1 1.6474823683744577 1.647281041168009 20.444021761492326 0 0 0
1483 1 9.473819234296638 18.86532599926568 25.17715927026488 0 0 0
436 1 4.778040027010113 1.647282051468002 20.444022613391933 0 0 0
860 1 11.03902381365431 17.3000468624639 36.20362412578119 0 0 0
438 1 7.908596202145315 1.6472819841127035 20.444026279824016 0 0 0
625 1 0.08215469830942321 12.604224798820248 25.177145069369086 0 0 0