ITEM: TIMESTEP
2279
ITEM: NUMBER OF ATOMS
3601
ITEM: BOX BOUNDS pp pp pp
8.1993806329497168e-02 3.7648658193670499e+01
8.1997487398931285e-02 3.7648654512601382e+01
-1.5833023570430294e+01 5.3563675570430348e+01
ITEM: ATOMS id x y z
1121 6.34315 18.865 9.39989
2 1.64727 1.64697 1.5289
907 9.47367 18.865 -0.0418716
4 4.77783 1.64696 1.52891
977 6.34312 18.865 3.08577
6 7.9084 1.64695 1.52893
1269 12.6042 18.8651 15.7107
8 11.039 1.64693 1.52892
1049 6.34312 18.865 6.24437
10 14.1695 1.64692 1.52891
426 7.90837 17.2998 17.2884
12 17.3001 1.6469 1.52888
905 6.34309 18.865 -0.0418442
14 1.64727 4.77752 1.52893
15 3.21256 3.21225 -0.0417646
16 4.77785 4.77752 1.52893
17 6.34313 3.21224 -0.0417407
18 7.90842 4.77751 1.52895
19 9.47369 3.21223 -0.041726
20 11.039 4.7775 1.52895
21 12.6042 3.21222 -0.0417507
22 14.1695 4.77748 1.5289
23 15.7348 3.21219 -0.0417941
24 17.3001 4.77745 1.52886
1051 9.47369 18.865 6.24437
26 1.64727 7.90808 1.52895
27 3.21256 6.3428 -0.0417353
28 4.77785 7.90808 1.52895
29 6.34314 6.3428 -0.0417141
30 7.90841 7.90808 1.52896
31 9.47368 6.3428 -0.0417148
32 11.039 7.90807 1.52894
33 12.6042 6.34277 -0.0417536
34 14.1695 7.90803 1.52889
35 15.7348 6.34274 -0.0418105
36 17.3001 7.90802 1.52886
1125 12.6043 18.865 9.39991
38 1.64728 11.0386 1.52894
39 3.21257 9.47335 -0.041719
40 4.77784 11.0386 1.52895
41 6.34313 9.47335 -0.0417163
42 7.9084 11.0386 1.52894
43 9.47367 9.47333 -0.0417463
44 11.039 11.0386 1.5289
45 12.6042 9.47331 -0.0417845
46 14.1695 11.0386 1.52889
47 15.7348 9.47331 -0.0418033
48 17.3 11.0386 1.52889
1123 9.4737 18.865 9.39989
50 1.64727 14.1692 1.52891
51 3.21256 12.6039 -0.041752
52 4.77784 14.1692 1.5289
53 6.34311 12.6039 -0.0417585
54 7.9084 14.1692 1.52887
55 9.47368 12.6039 -0.041804
56 11.0389 14.1692 1.52887
57 12.6042 12.6039 -0.0417887
58 14.1695 14.1691 1.52891
59 15.7348 12.6038 -0.0417895
60 17.3 14.1691 1.52891
425 6.3431 15.7345 15.7107
62 1.64728 17.2997 1.52887
63 3.21256 15.7344 -0.0417965
64 4.77783 17.2997 1.52887
65 6.3431 15.7344 -0.0418107
66 7.9084 17.2997 1.52883
67 9.47367 15.7344 -0.0418336
68 11.0389 17.2997 1.52885
69 12.6042 15.7344 -0.0417943
70 14.1695 17.2997 1.52888
71 15.7348 15.7344 -0.0418349
72 17.2999 17.2995 1.52895
424 4.77783 17.2998 17.2884
74 1.64727 1.64697 4.66739
423 3.21256 15.7345 15.7107
76 4.77784 1.64697 4.66739
1861 18.8653 15.7342 -0.0418383
78 7.9084 1.64695 4.66741
313 0.0819979 6.34284 12.5554
80 11.039 1.64694 4.66742
373 0.0820013 3.21232 15.7108
82 14.1695 1.64693 4.66741
385 0.0820041 6.34287 15.7108
84 17.3001 1.64692 4.66739
422 1.64727 17.2998 17.2884
86 1.64727 4.77754 4.66741
87 3.21256 3.21225 3.08584
88 4.77785 4.77754 4.66742
89 6.34313 3.21224 3.08585
90 7.90841 4.77752 4.66743
91 9.47369 3.21223 3.08586
92 11.039 4.7775 4.66743
93 12.6042 3.21221 3.08585
94 14.1695 4.77749 4.6674
95 15.7348 3.2122 3.08582
96 17.3001 4.77748 4.66736
2173 18.8653 3.2123 15.7107
98 1.64727 7.90809 4.66743
99 3.21256 6.34281 3.08587
100 4.77784 7.90809 4.66743
101 6.34313 6.3428 3.08587
102 7.90841 7.90808 4.66744
103 9.47369 6.34279 3.08589
104 11.039 7.90807 4.66743
105 12.6042 6.34278 3.08585
106 14.1695 7.90805 4.66739
107 15.7348 6.34275 3.08581
108 17.3001 7.90804 4.66736
420 17.3001 14.1693 17.2885
110 1.64727 11.0386 4.66743
111 3.21256 9.47336 3.08587
112 4.77784 11.0387 4.66743
113 6.34313 9.47336 3.08589
114 7.9084 11.0386 4.66743
115 9.47369 9.47335 3.08587
116 11.039 11.0386 4.6674
117 12.6042 9.47333 3.08584
118 14.1695 11.0386 4.66738
119 15.7348 9.4733 3.08582
120 17.3001 11.0386 4.66738
419 15.7348 12.604 15.7108
122 1.64727 14.1692 4.6674
123 3.21256 12.6039 3.08585
124 4.77784 14.1692 4.6674
125 6.34312 12.6039 3.08585
126 7.90841 14.1692 4.66738
127 9.47368 12.6039 3.08583
128 11.039 14.1692 4.66737
129 12.6042 12.6039 3.08583
130 14.1695 14.1692 4.66738
131 15.7348 12.6038 3.08584
132 17.3001 14.1692 4.66737
418 14.1695 14.1693 17.2885
134 1.64727 17.2997 4.66738
135 3.21255 15.7345 3.08582
136 4.77784 17.2997 4.66737
137 6.34312 15.7345 3.0858
138 7.90841 17.2997 4.66735
139 9.47368 15.7344 3.08579
140 11.039 17.2997 4.66735
141 12.6042 15.7344 3.08582
142 14.1695 17.2997 4.66734
143 15.7348 15.7344 3.08585
144 17.3001 17.2998 4.66728
1849 18.8653 12.6038 -0.0417927
146 1.64727 1.64698 7.82225
417 12.6042 12.604 15.7108
148 4.77783 1.64698 7.82226
2701 18.8648 18.8643 -0.0415083
150 7.90839 1.64698 7.82228
229 0.0819948 3.21227 9.39993
152 11.039 1.64696 7.82229
416 11.0389 14.1693 17.2885
154 14.1695 1.64695 7.82229
911 15.7346 18.8649 -0.0418623
156 17.3001 1.64695 7.82227
415 9.47366 12.604 15.7108
158 1.64727 4.77754 7.82228
159 3.21256 3.21226 6.24442
160 4.77785 4.77755 7.82229
161 6.34313 3.21226 6.24443
162 7.90841 4.77754 7.82229
163 9.47369 3.21224 6.24444
164 11.039 4.77752 7.8223
165 12.6042 3.21222 6.24443
166 14.1695 4.77751 7.82229
167 15.7348 3.21221 6.24442
168 17.3001 4.77752 7.82226
1055 15.7348 18.865 6.24432
170 1.64727 7.90811 7.8223
171 3.21257 6.34282 6.24444
172 4.77785 7.9081 7.8223
173 6.34313 6.34281 6.24445
174 7.90841 7.9081 7.82231
175 9.47369 6.3428 6.24445
176 11.039 7.90808 7.82231
177 12.6042 6.34279 6.24444
178 14.1695 7.90808 7.82229
179 15.7348 6.34278 6.2444
180 17.3001 7.90808 7.82225
403 9.47366 9.47342 15.7108
182 1.64727 11.0387 7.8223
183 3.21256 9.47338 6.24444
184 4.77784 11.0387 7.8223
185 6.34312 9.47338 6.24445
186 7.90841 11.0387 7.8223
187 9.47369 9.47336 6.24445
188 11.039 11.0386 7.82229
189 12.6042 9.47335 6.24443
190 14.1695 11.0386 7.82228
191 15.7348 9.47334 6.2444
192 17.3001 11.0386 7.82226
402 7.90837 11.0387 17.2885
194 1.64727 14.1692 7.82228
195 3.21256 12.6039 6.24443
196 4.77784 14.1692 7.82228
197 6.34312 12.6039 6.24443
198 7.90841 14.1692 7.82226
199 9.47369 12.6039 6.24441
200 11.039 14.1692 7.82227
201 12.6042 12.6039 6.24441
202 14.1695 14.1692 7.82226
203 15.7348 12.6039 6.2444
204 17.3001 14.1692 7.82224
401 6.34309 9.47342 15.7108
206 1.64727 17.2998 7.82226
207 3.21256 15.7345 6.24441
208 4.77785 17.2998 7.82225
209 6.34312 15.7345 6.24439
210 7.90842 17.2998 7.82224
211 9.47369 15.7345 6.24438
212 11.039 17.2997 7.82225
213 12.6042 15.7345 6.24439
214 14.1695 17.2998 7.82223
215 15.7348 15.7345 6.24438
216 17.3001 17.2998 7.82217
133 0.0819946 15.7345 3.08582
218 1.64727 1.647 10.9776
1197 12.6043 18.8651 12.5553
220 4.77782 1.647 10.9776
1053 12.6042 18.865 6.24437
222 7.90838 1.647 10.9777
1271 15.7348 18.8651 15.7107
224 11.0389 1.64699 10.9776
983 15.7348 18.865 3.08573
226 14.1695 1.64698 10.9776
1267 9.47367 18.8651 15.7107
228 17.3001 1.64697 10.9776
414 7.90837 14.1693 17.2884
230 1.64727 4.77755 10.9776
231 3.21255 3.21227 9.39993
232 4.77784 4.77756 10.9777
233 6.34311 3.21227 9.39994
234 7.9084 4.77756 10.9777
235 9.47367 3.21226 9.39995
236 11.039 4.77755 10.9777
237 12.6042 3.21225 9.39995
238 14.1695 4.77755 10.9776
239 15.7348 3.21225 9.39993
240 17.3001 4.77754 10.9776
413 6.3431 12.604 15.7107
242 1.64727 7.90811 10.9777
243 3.21256 6.34283 9.39995
244 4.77785 7.90812 10.9777
245 6.34313 6.34283 9.39996
246 7.9084 7.90812 10.9777
247 9.47369 6.34283 9.39997
248 11.039 7.90811 10.9777
249 12.6042 6.34282 9.39996
250 14.1695 7.90811 10.9777
251 15.7348 6.34282 9.39993
252 17.3001 7.90811 10.9776
1199 15.7348 18.8651 12.5553
254 1.64727 11.0387 10.9776
255 3.21256 9.47338 9.39995
256 4.77785 11.0387 10.9777
257 6.34313 9.4734 9.39996
258 7.90841 11.0387 10.9777
259 9.47369 9.47339 9.39997
260 11.039 11.0387 10.9777
261 12.6042 9.47338 9.39996
262 14.1695 11.0387 10.9777
263 15.7348 9.47338 9.39993
264 17.3001 11.0387 10.9776
412 4.77782 14.1693 17.2884
266 1.64727 14.1692 10.9776
267 3.21256 12.6039 9.39995
268 4.77785 14.1692 10.9776
269 6.34313 12.604 9.39995
270 7.90842 14.1692 10.9776
271 9.47369 12.6039 9.39994
272 11.039 14.1692 10.9776
273 12.6042 12.6039 9.39994
274 14.1695 14.1692 10.9776
275 15.7348 12.6039 9.39993
276 17.3001 14.1692 10.9776
411 3.21255 12.604 15.7107
278 1.64727 17.2998 10.9776
279 3.21257 15.7345 9.39993
280 4.77785 17.2998 10.9776
281 6.34315 15.7345 9.39991
282 7.90843 17.2998 10.9776
283 9.47371 15.7345 9.3999
284 11.039 17.2998 10.9776
285 12.6043 15.7345 9.39992
286 14.1695 17.2998 10.9776
287 15.7348 15.7345 9.39991
288 17.3001 17.2998 10.9776
410 1.64727 14.1693 17.2884
290 1.64727 1.64703 14.1331
409 0.0819955 12.604 15.7107
292 4.77782 1.64703 14.1331
408 17.3001 11.0387 17.2885
294 7.90837 1.64702 14.1331
1195 9.47371 18.8651 12.5553
296 11.0389 1.64702 14.133
909 12.6042 18.865 -0.0418164
298 14.1695 1.64701 14.133
407 15.7348 9.47341 15.7108
300 17.3 1.647 14.133
301 0.0820003 3.21229 12.5553
302 1.64727 4.77758 14.1331
303 3.21255 3.21229 12.5553
304 4.77782 4.77758 14.1331
305 6.3431 3.21229 12.5554
306 7.90838 4.77758 14.1331
307 9.47365 3.21228 12.5554
308 11.0389 4.77758 14.1331
309 12.6042 3.21228 12.5553
310 14.1695 4.77757 14.133
311 15.7348 3.21227 12.5553
312 17.3001 4.77756 14.133
406 14.1695 11.0387 17.2885
314 1.64727 7.90813 14.1331
315 3.21255 6.34284 12.5554
316 4.77783 7.90814 14.1331
317 6.34311 6.34284 12.5554
318 7.90838 7.90814 14.1331
319 9.47367 6.34284 12.5554
320 11.0389 7.90814 14.1331
321 12.6042 6.34284 12.5554
322 14.1695 7.90813 14.1331
323 15.7348 6.34283 12.5553
324 17.3001 7.90812 14.133
1127 15.7348 18.865 9.39988
326 1.64727 11.0387 14.133
327 3.21256 9.4734 12.5553
328 4.77783 11.0387 14.133
329 6.34312 9.47341 12.5554
330 7.90839 11.0387 14.1331
331 9.47368 9.47341 12.5554
332 11.039 11.0387 14.1331
333 12.6042 9.4734 12.5554
334 14.1695 11.0387 14.1331
335 15.7348 9.4734 12.5554
336 17.3001 11.0387 14.1331
981 12.6042 18.865 3.08579
338 1.64727 14.1692 14.133
339 3.21256 12.604 12.5553
340 4.77783 14.1692 14.133
341 6.34312 12.604 12.5554
342 7.9084 14.1693 14.133
343 9.47369 12.604 12.5554
344 11.039 14.1692 14.1331
345 12.6042 12.604 12.5554
346 14.1695 14.1692 14.1331
347 15.7348 12.604 12.5554
348 17.3001 14.1692 14.133
979 9.47367 18.865 3.08577
350 1.64727 17.2998 14.133
351 3.21256 15.7345 12.5553
352 4.77784 17.2998 14.133
353 6.34313 15.7345 12.5553
354 7.9084 17.2998 14.133
355 9.4737 15.7345 12.5553
356 11.039 17.2998 14.133
357 12.6042 15.7345 12.5553
358 14.1695 17.2998 14.133
359 15.7348 15.7345 12.5553
360 17.3001 17.2998 14.133
432 17.3001 17.2998 17.2885
362 1.64727 1.64706 17.2885
431 15.7348 15.7345 15.7108
364 4.77782 1.64706 17.2885
430 14.1695 17.2998 17.2885
366 7.90837 1.64705 17.2885
429 12.6042 15.7345 15.7108
368 11.0389 1.64705 17.2885
428 11.0389 17.2998 17.2884
370 14.1695 1.64704 17.2884
427 9.47367 15.7345 15.7107
372 17.3 1.64704 17.2884
405 12.6042 9.47342 15.7108
374 1.64727 4.7776 17.2885
375 3.21255 3.21232 15.7108
376 4.77782 4.77761 17.2885
377 6.3431 3.21231 15.7108
378 7.90837 4.7776 17.2885
379 9.47365 3.21231 15.7108
380 11.0389 4.7776 17.2885
381 12.6042 3.2123 15.7107
382 14.1695 4.77759 17.2884
383 15.7348 3.2123 15.7107
384 17.3 4.77759 17.2884
404 11.0389 11.0387 17.2885
386 1.64727 7.90816 17.2885
387 3.21254 6.34287 15.7108
388 4.77782 7.90816 17.2885
389 6.34309 6.34286 15.7108
390 7.90837 7.90816 17.2885
391 9.47365 6.34286 15.7108
392 11.0389 7.90815 17.2885
393 12.6042 6.34285 15.7108
394 14.1695 7.90814 17.2885
395 15.7348 6.34285 15.7107
396 17.3001 7.90814 17.2884
397 0.0820026 9.47342 15.7108
398 1.64727 11.0387 17.2885
399 3.21254 9.47342 15.7108
400 4.77782 11.0387 17.2885
1265 6.3431 18.8651 15.7107
975 3.21255 18.865 3.0858
903 3.21255 18.865 -0.0418255
1119 3.21257 18.865 9.39992
1263 3.21256 18.8651 15.7107
1191 3.21257 18.8651 12.5553
1193 6.34314 18.8651 12.5553
1047 3.21256 18.865 6.24439
973 0.0819976 18.865 3.0858
901 0.0819978 18.865 -0.0418246
613 0.0819971 9.47353 25.177
434 1.64727 1.64708 20.4439
553 0.0819996 12.604 22.0216
436 4.77782 1.64708 20.4439
860 11.039 17.3 36.2034
438 7.90838 1.64708 20.4439
625 0.0819984 12.6041 25.177
440 11.0389 1.64708 20.4439
893 12.6042 12.6041 37.774
442 14.1695 1.64708 20.4438
859 9.47368 15.7347 34.6464
444 17.3 1.64708 20.4438
892 9.47368 12.6041 37.774
446 1.64727 4.77764 20.4439
2437 18.8653 15.7346 25.1769
448 4.77782 4.77764 20.4439
637 0.0819992 15.7346 25.1769
450 7.90838 4.77764 20.4439
1343 15.7348 18.8651 18.8662
452 11.0389 4.77763 20.4439
445 0.0819969 3.21235 18.8662
454 14.1695 4.77763 20.4438
1623 3.21255 18.8652 31.4879
456 17.3 4.77763 20.4438
891 6.34312 12.6041 37.774
458 1.64727 7.90819 20.4439
858 7.9084 17.3 36.2034
460 4.77783 7.90819 20.4439
857 6.34312 15.7347 34.6464
462 7.90838 7.90819 20.4439
1559 15.7348 18.8652 28.3323
464 11.0389 7.90819 20.4439
465 12.6042 6.34289 18.8662
466 14.1695 7.90818 20.4439
1549 0.0819956 18.8652 28.3323
468 17.3 7.90818 20.4438
890 3.21255 12.6041 37.774
470 1.64727 11.0387 20.4439
481 0.0820042 12.604 18.8661
472 4.77783 11.0387 20.4439
449 6.3431 3.21235 18.8662
474 7.90838 11.0387 20.4439
3205 18.8653 18.8651 22.0215
476 11.0389 11.0387 20.4439
477 12.6042 9.47344 18.8662
478 14.1695 11.0387 20.4439
856 4.77784 17.3 36.2034
480 17.3 11.0387 20.4438
1341 12.6042 18.8651 18.8662
482 1.64727 14.1693 20.4438
473 6.3431 9.47345 18.8662
484 4.77782 14.1693 20.4438
1697 6.34312 18.8652 34.6464
486 7.90837 14.1693 20.4438
463 9.47365 6.34289 18.8662
488 11.0389 14.1693 20.4439
1703 15.7348 18.8652 34.6464
490 14.1695 14.1693 20.4439
485 6.34309 12.604 18.8661
492 17.3 14.1693 20.4438
888 15.7348 9.47359 37.774
494 1.64727 17.2999 20.4438
497 6.34309 15.7346 18.8661
496 4.77781 17.2999 20.4438
565 0.082002 15.7346 22.0215
498 7.90837 17.2999 20.4438
541 0.081999 9.47349 22.0216
500 11.0389 17.2999 20.4438
467 15.7348 6.34288 18.8661
502 14.1695 17.2998 20.4438
2353 18.8653 12.604 22.0215
504 17.3 17.2998 20.4438
855 3.21255 15.7347 34.6464
506 1.64727 1.64711 23.5993
529 0.081995 6.34293 22.0216
508 4.77783 1.64711 23.5993
887 12.6042 9.47359 37.774
510 7.90839 1.6471 23.5993
1699 9.47368 18.8652 34.6464
512 11.039 1.64711 23.5993
854 1.64727 17.3 36.2034
514 14.1695 1.64711 23.5992
2509 18.8653 15.7347 28.3323
516 17.3001 1.64711 23.5992
517 0.0819967 3.21237 22.0216
518 1.64727 4.77767 23.5993
519 3.21255 3.21237 22.0216
520 4.77783 4.77767 23.5993
521 6.34311 3.21237 22.0216
522 7.90839 4.77767 23.5993
523 9.47366 3.21237 22.0216
524 11.0389 4.77767 23.5993
525 12.6042 3.21237 22.0216
526 14.1695 4.77766 23.5992
527 15.7348 3.21237 22.0215
528 17.3001 4.77766 23.5992
886 9.47367 9.47358 37.774
530 1.64727 7.90823 23.5993
531 3.21255 6.34293 22.0216
532 4.77783 7.90823 23.5993
533 6.3431 6.34293 22.0216
534 7.90838 7.90823 23.5993
535 9.47366 6.34293 22.0216
536 11.0389 7.90822 23.5993
537 12.6042 6.34293 22.0216
538 14.1695 7.90822 23.5993
539 15.7348 6.34292 22.0215
540 17.3 7.90822 23.5992
885 6.34312 9.47358 37.774
542 1.64727 11.0388 23.5993
543 3.21255 9.47349 22.0216
544 4.77783 11.0388 23.5993
545 6.3431 9.47349 22.0216
546 7.90838 11.0388 23.5993
547 9.47366 9.47349 22.0216
548 11.0389 11.0388 23.5993
549 12.6042 9.47348 22.0216
550 14.1695 11.0388 23.5993
551 15.7348 9.47348 22.0215
552 17.3 11.0388 23.5992
884 3.21255 9.47358 37.774
554 1.64727 14.1694 23.5992
555 3.21255 12.604 22.0216
556 4.77782 14.1693 23.5992
557 6.34311 12.604 22.0216
558 7.90838 14.1693 23.5992
559 9.47365 12.604 22.0216
560 11.0389 14.1693 23.5992
561 12.6042 12.604 22.0216
562 14.1695 14.1693 23.5992
563 15.7348 12.604 22.0215
564 17.3 14.1693 23.5992
1627 9.47367 18.8652 31.4878
566 1.64727 17.2999 23.5992
567 3.21254 15.7346 22.0215
568 4.77782 17.2999 23.5992
569 6.3431 15.7346 22.0215
570 7.90838 17.2999 23.5992
571 9.47365 15.7346 22.0215
572 11.0389 17.2999 23.5992
573 12.6042 15.7346 22.0215
574 14.1695 17.2999 23.5992
575 15.7348 15.7346 22.0215
576 17.3 17.2999 23.5992
863 15.7348 15.7347 34.6464
578 1.64727 1.64713 26.7547
852 17.3001 14.1694 36.2034
580 4.77784 1.64713 26.7547
499 9.47365 15.7346 18.8661
582 7.9084 1.64714 26.7547
459 3.21255 6.3429 18.8662
584 11.039 1.64714 26.7547
1770 15.7348 18.8652 37.774
586 14.1695 1.64714 26.7546
882 15.7348 6.34303 37.7741
588 17.3001 1.64714 26.7546
851 15.7348 12.6041 34.6464
590 1.64727 4.7777 26.7547
591 3.21256 3.21241 25.177
592 4.77784 4.7777 26.7547
593 6.34312 3.2124 25.177
594 7.90841 4.7777 26.7547
595 9.47368 3.2124 25.177
596 11.039 4.7777 26.7547
597 12.6042 3.2124 25.177
598 14.1695 4.7777 26.7546
599 15.7348 3.2124 25.1769
600 17.3001 4.7777 26.7546
881 12.6042 6.34303 37.774
602 1.64727 7.90826 26.7547
603 3.21255 6.34297 25.177
604 4.77784 7.90826 26.7547
605 6.34311 6.34296 25.177
606 7.9084 7.90826 26.7547
607 9.47367 6.34296 25.177
608 11.039 7.90826 26.7547
609 12.6042 6.34296 25.177
610 14.1695 7.90825 26.7546
611 15.7348 6.34296 25.1769
612 17.3001 7.90825 26.7546
880 9.47367 6.34302 37.774
614 1.64727 11.0388 26.7547
615 3.21255 9.47353 25.177
616 4.77783 11.0388 26.7547
617 6.34311 9.47353 25.177
618 7.90839 11.0388 26.7547
619 9.47366 9.47353 25.177
620 11.0389 11.0388 26.7546
621 12.6042 9.47352 25.177
622 14.1695 11.0388 26.7546
623 15.7348 9.47352 25.1769
624 17.3 11.0388 26.7546
879 6.34311 6.34302 37.774
626 1.64727 14.1694 26.7546
627 3.21255 12.6041 25.177
628 4.77783 14.1694 26.7546
629 6.3431 12.6041 25.1769
630 7.90838 14.1694 26.7546
631 9.47366 12.6041 25.1769
632 11.0389 14.1694 26.7546
633 12.6042 12.6041 25.1769
634 14.1695 14.1694 26.7546
635 15.7348 12.6041 25.1769
636 17.3 14.1694 26.7546
878 3.21255 6.34302 37.774
638 1.64727 17.2999 26.7546
639 3.21255 15.7346 25.1769
640 4.77782 17.2999 26.7546
641 6.3431 15.7346 25.1769
642 7.90838 17.2999 26.7546
643 9.47365 15.7346 25.1769
644 11.0389 17.2999 26.7546
645 12.6042 15.7346 25.1769
646 14.1695 17.2999 26.7546
647 15.7348 15.7346 25.1769
648 17.3 17.2999 26.7546
2425 18.8653 12.6041 25.1769
650 1.64727 1.64715 29.9101
1766 3.21256 18.8652 37.7741
652 4.77784 1.64715 29.9101
461 6.3431 6.3429 18.8662
654 7.90841 1.64716 29.91
850 14.1695 14.1694 36.2034
656 11.039 1.64716 29.91
849 12.6042 12.6041 34.6464
658 14.1695 1.64716 29.91
455 15.7348 3.21234 18.8661
660 17.3001 1.64716 29.91
876 15.7348 3.21247 37.7741
662 1.64727 4.77772 29.9101
663 3.21256 3.21243 28.3324
664 4.77784 4.77772 29.91
665 6.34313 3.21243 28.3324
666 7.90841 4.77772 29.91
667 9.47369 3.21243 28.3324
668 11.039 4.77772 29.91
669 12.6042 3.21243 28.3324
670 14.1695 4.77772 29.91
671 15.7348 3.21243 28.3323
672 17.3001 4.77772 29.91
453 12.6042 3.21234 18.8662
674 1.64727 7.90829 29.91
675 3.21256 6.343 28.3324
676 4.77784 7.90829 29.91
677 6.34312 6.34299 28.3324
678 7.9084 7.90829 29.91
679 9.47369 6.34299 28.3324
680 11.039 7.90828 29.91
681 12.6042 6.34299 28.3324
682 14.1695 7.90828 29.91
683 15.7348 6.34299 28.3323
684 17.3001 7.90828 29.91
875 12.6042 3.21247 37.774
686 1.64727 11.0389 29.91
687 3.21255 9.47356 28.3324
688 4.77784 11.0388 29.91
689 6.34312 9.47356 28.3324
690 7.9084 11.0388 29.91
691 9.47368 9.47355 28.3324
692 11.039 11.0388 29.91
693 12.6042 9.47355 28.3323
694 14.1695 11.0388 29.91
695 15.7348 9.47354 28.3323
696 17.3001 11.0388 29.91
848 11.039 14.1694 36.2034
698 1.64727 14.1694 29.91
699 3.21255 12.6041 28.3324
700 4.77783 14.1694 29.91
701 6.34311 12.6041 28.3324
702 7.90839 14.1694 29.91
703 9.47367 12.6041 28.3323
704 11.0389 14.1694 29.91
705 12.6042 12.6041 28.3323
706 14.1695 14.1694 29.91
707 15.7348 12.6041 28.3323
708 17.3001 14.1694 29.91
451 9.47365 3.21234 18.8662
710 1.64727 17.2999 29.91
711 3.21255 15.7347 28.3323
712 4.77783 17.2999 29.91
713 6.3431 15.7347 28.3323
714 7.90839 17.2999 29.91
715 9.47366 15.7347 28.3323
716 11.0389 17.2999 29.91
717 12.6042 15.7347 28.3323
718 14.1695 17.2999 29.91
719 15.7348 15.7347 28.3323
720 17.3001 17.2999 29.91
874 9.47367 3.21246 37.774
722 1.64727 1.64717 33.0649
873 6.34311 3.21246 37.774
724 4.77784 1.64717 33.0649
847 9.47368 12.6041 34.6464
726 7.90841 1.64717 33.0649
447 3.21255 3.21235 18.8662
728 11.039 1.64717 33.0649
846 7.9084 14.1694 36.2034
730 14.1695 1.64718 33.0649
872 3.21255 3.21246 37.774
732 17.3001 1.64718 33.0649
479 15.7348 9.47344 18.8662
734 1.64727 4.77774 33.0649
735 3.21256 3.21245 31.4879
736 4.77784 4.77774 33.0649
737 6.34313 3.21245 31.4879
738 7.90841 4.77774 33.0649
739 9.47369 3.21245 31.4879
740 11.039 4.77774 33.0649
741 12.6042 3.21245 31.4879
742 14.1695 4.77774 33.0649
743 15.7348 3.21245 31.4879
744 17.3001 4.77774 33.0649
471 3.21255 9.47345 18.8662
746 1.64727 7.90831 33.0649
747 3.21256 6.34302 31.4879
748 4.77784 7.9083 33.0649
749 6.34312 6.34302 31.4879
750 7.9084 7.9083 33.0649
751 9.47369 6.34301 31.4879
752 11.039 7.9083 33.0649
753 12.6042 6.34301 31.4879
754 14.1695 7.9083 33.0649
755 15.7348 6.34301 31.4879
756 17.3001 7.9083 33.0649
894 15.7348 12.6041 37.774
758 1.64727 11.0389 33.0649
759 3.21256 9.47358 31.4879
760 4.77784 11.0389 33.0649
761 6.34312 9.47358 31.4879
762 7.9084 11.0389 33.0649
763 9.47368 9.47358 31.4879
764 11.039 11.0389 33.0649
765 12.6042 9.47357 31.4879
766 14.1695 11.0389 33.0649
767 15.7348 9.47357 31.4879
768 17.3001 11.0389 33.0649
475 9.47365 9.47345 18.8662
770 1.64727 14.1694 33.0649
771 3.21256 12.6041 31.4879
772 4.77784 14.1694 33.0649
773 6.34312 12.6041 31.4879
774 7.9084 14.1694 33.0649
775 9.47368 12.6041 31.4879
776 11.039 14.1694 33.0649
777 12.6042 12.6041 31.4878
778 14.1695 14.1694 33.0649
779 15.7348 12.6041 31.4878
780 17.3001 14.1694 33.0649
896 3.21255 15.7347 37.7741
782 1.64727 17.3 33.0649
783 3.21255 15.7347 31.4879
784 4.77784 17.3 33.0649
785 6.34311 15.7347 31.4879
786 7.9084 17.3 33.0649
787 9.47367 15.7347 31.4879
788 11.039 17.3 33.0649
789 12.6042 15.7347 31.4878
790 14.1695 17.3 33.0649
791 15.7348 15.7347 31.4878
792 17.3001 17.3 33.0649
483 3.21254 12.604 18.8661
794 1.64727 1.64718 36.2034
862 14.1695 17.3 36.2034
796 4.77784 1.64718 36.2034
1413 12.6042 18.8651 22.0215
798 7.9084 1.64718 36.2034
897 6.34312 15.7347 37.7741
800 11.039 1.64718 36.2034
861 12.6042 15.7347 34.6464
802 14.1695 1.64718 36.2034
900 15.7348 15.7347 37.774
804 17.3001 1.64718 36.2034
898 9.47368 15.7347 37.774
806 1.64727 4.77774 36.2034
807 3.21256 3.21246 34.6464
808 4.77784 4.77774 36.2034
809 6.34312 3.21246 34.6464
810 7.9084 4.77774 36.2034
811 9.47368 3.21246 34.6464
812 11.039 4.77775 36.2034
813 12.6042 3.21246 34.6464
814 14.1695 4.77775 36.2034
815 15.7348 3.21246 34.6464
816 17.3001 4.77775 36.2034
899 12.6042 15.7347 37.774
818 1.64727 7.9083 36.2034
819 3.21256 6.34302 34.6464
820 4.77784 7.9083 36.2034
821 6.34312 6.34303 34.6464
822 7.9084 7.9083 36.2034
823 9.47368 6.34303 34.6464
824 11.039 7.90831 36.2034
825 12.6042 6.34303 34.6464
826 14.1695 7.90831 36.2034
827 15.7348 6.34303 34.6464
828 17.3001 7.90831 36.2034
864 17.3001 17.3 36.2034
830 1.64727 11.0389 36.2034
831 3.21256 9.47358 34.6464
832 4.77784 11.0389 36.2034
833 6.34312 9.47358 34.6464
834 7.9084 11.0389 36.2034
835 9.47368 9.47359 34.6464
836 11.039 11.0389 36.2034
837 12.6042 9.47359 34.6464
838 14.1695 11.0389 36.2034
839 15.7348 9.47359 34.6464
840 17.3001 11.0389 36.2034
469 0.0819995 9.47345 18.8662
842 1.64727 14.1694 36.2034
843 3.21255 12.6041 34.6464
844 4.77784 14.1694 36.2034
845 6.34312 12.6041 34.6464
1769 12.6042 18.8652 37.774
3277 18.8653 18.8652 25.1769
1701 12.6042 18.8652 34.6464
457 0.0819998 6.3429 18.8662
487 9.47365 12.604 18.8662
1695 3.21255 18.8652 34.6464
493 0.0819982 15.7346 18.8661
1409 6.3431 18.8652 22.0215
1411 9.47365 18.8652 22.0215
1415 15.7348 18.8651 22.0215
1479 3.21255 18.8652 25.1769
1481 6.3431 18.8652 25.1769
1487 15.7348 18.8652 25.1769
3349 18.8653 18.8652 28.3323
1551 3.21255 18.8652 28.3323
1553 6.3431 18.8652 28.3323
1555 9.47366 18.8652 28.3323
1557 12.6042 18.8652 28.3323
1629 12.6042 18.8652 31.4878
1631 15.7348 18.8652 31.4878
1625 6.34311 18.8652 31.4879
1767 6.34312 18.8652 37.7741
1768 9.47368 18.8652 37.774
1477 0.0819998 18.8652 25.1769
489 12.6042 12.604 18.8662
491 15.7348 12.604 18.8662
495 3.21255 15.7346 18.8661
501 12.6042 15.7346 18.8662
2245 18.8653 3.21233 18.8661
1485 12.6042 18.8652 25.1769
1339 9.47365 18.8651 18.8661
1483 9.47365 18.8652 25.1769
503 15.7348 15.7346 18.8662
1335 3.21255 18.8651 18.8661
1405 0.0820076 18.8652 22.0215
1333 0.0819946 18.8651 18.8661
1337 6.34309 18.8651 18.8661
1407 3.21254 18.8652 22.0215
1069 0.0819989 25.1261 6.24442
902 1.64727 20.4303 1.52886
1105 0.0819951 34.5178 6.2444
904 4.77783 20.4303 1.52885
81 12.6042 37.6483 3.08584
906 7.90838 20.4303 1.52882
155 15.7348 37.6483 6.24442
908 11.0389 20.4303 1.52884
2713 18.8648 21.996 -0.0418222
910 14.1694 20.4303 1.52885
153 12.6042 37.6483 6.24443
912 17.2999 20.4303 1.52869
913 0.0820023 21.9955 -0.0418251
914 1.64727 23.5608 1.52888
915 3.21255 21.9955 -0.041826
916 4.77782 23.5608 1.52887
917 6.34308 21.9955 -0.0418391
918 7.90838 23.5608 1.52884
919 9.47363 21.9955 -0.0418606
920 11.0389 23.5608 1.52884
921 12.6041 21.9955 -0.0418218
922 14.1694 23.5608 1.52887
923 15.7346 21.9956 -0.0418774
924 17.2999 23.5609 1.52887
925 0.0819969 25.1261 -0.0417929
926 1.64727 26.6913 1.52891
927 3.21255 25.1261 -0.0417926
928 4.77782 26.6914 1.52891
929 6.34309 25.1261 -0.0418081
930 7.90838 26.6914 1.52889
931 9.47365 25.1261 -0.04184
932 11.0389 26.6914 1.52886
933 12.6042 25.1261 -0.0418286
934 14.1695 26.6914 1.52885
935 15.7347 25.1261 -0.0418343
936 17.3 26.6914 1.52884
79 9.47367 37.6483 3.08585
938 1.64727 29.8219 1.52893
939 3.21256 28.2566 -0.0417552
940 4.77784 29.8219 1.52893
941 6.3431 28.2566 -0.0417621
942 7.90839 29.8219 1.52893
943 9.47364 28.2567 -0.0417906
944 11.0389 29.8219 1.5289
945 12.6042 28.2567 -0.0418231
946 14.1695 29.8219 1.52885
947 15.7348 28.2567 -0.0418486
948 17.3 29.8219 1.52881
7 9.47366 37.6483 -0.0417486
950 1.64727 32.9525 1.52892
951 3.21256 31.3872 -0.0417451
952 4.77784 32.9525 1.52892
953 6.34312 31.3872 -0.0417451
954 7.90839 32.9525 1.52893
955 9.47366 31.3872 -0.0417539
956 11.0389 32.9525 1.52893
957 12.6042 31.3872 -0.0417884
958 14.1695 32.9525 1.52888
959 15.7347 31.3872 -0.0418392
960 17.3001 32.9525 1.52884
2737 18.8653 28.2567 -0.041869
962 1.64727 36.0831 1.52889
963 3.21255 34.5178 -0.0417599
964 4.77783 36.083 1.52891
965 6.34311 34.5178 -0.0417511
966 7.90838 36.083 1.52892
967 9.47366 34.5177 -0.0417511
968 11.0389 36.083 1.52892
969 12.6042 34.5178 -0.0417725
970 14.1695 36.083 1.5289
971 15.7348 34.5178 -0.0418154
972 17.3001 36.083 1.52886
361 0.0819976 37.6484 15.7108
974 1.64727 20.4303 4.66737
147 3.21255 37.6483 6.24439
976 4.77784 20.4303 4.66735
75 3.21255 37.6483 3.08582
978 7.90841 20.4303 4.66733
2725 18.8653 25.1262 -0.041885
980 11.0389 20.4303 4.66734
145 0.0820002 37.6483 6.24439
982 14.1695 20.4303 4.66731
3 3.21255 37.6483 -0.0417763
984 17.3001 20.4303 4.6672
221 6.3431 37.6484 9.39993
986 1.64727 23.5608 4.66739
987 3.21255 21.9955 3.0858
988 4.77783 23.5608 4.66737
989 6.34311 21.9955 3.08578
990 7.90841 23.5608 4.66735
991 9.47366 21.9955 3.08577
992 11.039 23.5608 4.66734
993 12.6042 21.9955 3.08578
994 14.1695 23.5608 4.66732
995 15.7348 21.9955 3.08573
996 17.3001 23.5608 4.66723
1033 0.0819993 34.5178 3.08583
998 1.64727 26.6913 4.66741
999 3.21255 25.1261 3.08582
1000 4.77783 26.6914 4.6674
1001 6.34311 25.1261 3.08581
1002 7.90839 26.6914 4.66739
1003 9.47366 25.1261 3.08579
1004 11.0389 26.6914 4.66737
1005 12.6042 25.1261 3.08579
1006 14.1695 26.6914 4.66734
1007 15.7347 25.1261 3.0858
1008 17.3001 26.6914 4.6673
225 12.6042 37.6483 9.39994
1010 1.64727 29.8219 4.66741
1011 3.21256 28.2566 3.08584
1012 4.77783 29.8219 4.66741
1013 6.34311 28.2566 3.08585
1014 7.90839 29.8219 4.66741
1015 9.47367 28.2566 3.08583
1016 11.0389 29.8219 4.6674
1017 12.6042 28.2567 3.0858
1018 14.1695 29.8219 4.66735
1019 15.7348 28.2567 3.08576
1020 17.3001 29.8219 4.66731
293 6.3431 37.6484 12.5553
1022 1.64727 32.9525 4.66739
1023 3.21256 31.3872 3.08585
1024 4.77783 32.9525 4.6674
1025 6.34311 31.3872 3.08586
1026 7.90839 32.9525 4.66742
1027 9.47367 31.3872 3.08586
1028 11.039 32.9525 4.66741
1029 12.6042 31.3872 3.08582
1030 14.1695 32.9525 4.66738
1031 15.7348 31.3872 3.08578
1032 17.3001 32.9525 4.66734
997 0.0819964 25.1261 3.08582
1034 1.64727 36.0831 4.66738
1035 3.21255 34.5178 3.08583
1036 4.77782 36.0831 4.66739
1037 6.34311 34.5178 3.08584
1038 7.90839 36.0831 4.6674
1039 9.47367 34.5178 3.08585
1040 11.039 36.083 4.66741
1041 12.6042 34.5178 3.08584
1042 14.1695 36.083 4.6674
1043 15.7348 34.5178 3.0858
1044 17.3001 36.083 4.66738
77 6.34311 37.6483 3.08584
1046 1.64727 20.4303 7.82226
297 12.6042 37.6484 12.5553
1048 4.77785 20.4303 7.82224
299 15.7348 37.6484 12.5553
1050 7.90842 20.4303 7.82223
11 15.7348 37.6483 -0.0418098
1052 11.039 20.4303 7.82223
149 6.34311 37.6483 6.24441
1054 14.1695 20.4303 7.82222
9 12.6042 37.6483 -0.041776
1056 17.3001 20.4303 7.82215
223 9.47365 37.6484 9.39994
1058 1.64727 23.5608 7.82228
1059 3.21256 21.9955 6.2444
1060 4.77784 23.5608 7.82226
1061 6.34313 21.9956 6.24436
1062 7.90841 23.5608 7.82224
1063 9.47369 21.9956 6.24437
1064 11.039 23.5608 7.82224
1065 12.6042 21.9956 6.24436
1066 14.1695 23.5608 7.82222
1067 15.7348 21.9955 6.24431
1068 17.3001 23.5608 7.82215
1237 0.0819963 31.3873 12.5553
1070 1.64727 26.6914 7.82228
1071 3.21255 25.1261 6.24442
1072 4.77783 26.6914 7.82229
1073 6.34311 25.1261 6.2444
1074 7.9084 26.6914 7.82227
1075 9.47369 25.1261 6.24439
1076 11.039 26.6914 7.82226
1077 12.6043 25.1261 6.24437
1078 14.1695 26.6914 7.82224
1079 15.7348 25.1261 6.24433
1080 17.3001 26.6914 7.82221
217 0.0820022 37.6484 9.39992
1082 1.64727 29.8219 7.82228
1083 3.21255 28.2566 6.24443
1084 4.77784 29.8219 7.82229
1085 6.34311 28.2567 6.24443
1086 7.90839 29.8219 7.82229
1087 9.47367 28.2567 6.24442
1088 11.039 29.8219 7.82228
1089 12.6042 28.2567 6.24439
1090 14.1695 29.8219 7.82226
1091 15.7348 28.2566 6.24435
1092 17.3001 29.8219 7.82222
1177 0.0820005 34.5178 9.39993
1094 1.64727 32.9525 7.82227
1095 3.21256 31.3872 6.24442
1096 4.77783 32.9525 7.82227
1097 6.34311 31.3872 6.24443
1098 7.90839 32.9525 7.82229
1099 9.47367 31.3872 6.24443
1100 11.039 32.9525 7.82228
1101 12.6042 31.3872 6.24441
1102 14.1695 32.9525 7.82226
1103 15.7348 31.3872 6.24437
1104 17.3001 32.9525 7.82223
227 15.7348 37.6483 9.39994
1106 1.64727 36.0831 7.82225