LAMMPS data file via write_data, version 2 Aug 2023, timestep = 3450, units = metal

3601 atoms
3 atom types

0.08199833831120554 37.64865366168878 xlo xhi
0.08200403119482085 37.648647968805314 ylo yhi
-15.831672210910511 53.56232421091044 zlo zhi

Masses

1 183.84
2 1.008
3 4.0026

Atoms # atomic

909 1 12.60421232937158 18.865325993937525 -0.04209147663714271 0 0 0
2 1 1.6472778486578408 1.6472742360594517 1.5286153556313946 0 0 0
2773 1 18.86532105867049 18.865325992026534 3.0855543340100304 0 0 0
4 1 4.777836358842036 1.6472766900946432 1.5286229445387294 0 0 0
905 1 6.3431071008526505 18.865325996414892 -0.04208750450067358 0 0 0
6 1 7.908392743459489 1.6472809975815155 1.5286341662515466 0 0 0
1055 1 15.734771528569501 18.865325995627096 6.244111919378389 0 0 0
8 1 11.038942741267796 1.64728219975372 1.528631026087717 0 0 0
1053 1 12.604217485331064 18.86532599625842 6.24410934289103 0 0 0
10 1 14.169494006850956 1.6472810546228918 1.5286152174127663 0 0 0
426 1 7.9083847444837305 17.30004908244581 17.288152652472107 0 0 0
12 1 17.3000491126033 1.647282421027713 1.5286024244630871 0 0 0
1051 1 9.473665568686105 18.865325996660125 6.244111098440783 0 0 0
14 1 1.6472778674036015 4.777820654164342 1.5286274061609209 0 0 0
15 1 3.212558035421599 3.212550674430613 -0.04205932893510109 0 0 0
16 1 4.777833133725678 4.777825959784875 1.5286243514906692 0 0 0
17 1 6.343115356859499 3.2125527380071834 -0.04205471446945828 0 0 0
18 1 7.908384407310719 4.7778356782541795 1.5286193536963097 0 0 0
19 1 9.473664212646803 3.2125553652537455 -0.042054716803625124 0 0 0
20 1 11.038934848175812 4.777837470106915 1.528612111130439 0 0 0
21 1 12.604212753862132 3.212552382781589 -0.04206513929241329 0 0 0
22 1 14.169489810170727 4.777833546075394 1.5286067259987324 0 0 0
23 1 15.734766953392697 3.212556448072062 -0.04207459909897395 0 0 0
24 1 17.300047272452154 4.777834296216185 1.5286041447870016 0 0 0
25 1 0.0820041908070451 6.343101534799897 -0.04204839313234497 0 0 0
26 1 1.647277954042895 7.908379835454483 1.5286323682344272 0 0 0
27 1 3.212551769733268 6.343101640111152 -0.042048352571792055 0 0 0
28 1 4.777829536330832 7.908383286884952 1.5286260497426678 0 0 0
29 1 6.343099511155198 6.343108023412833 -0.042061998438417555 0 0 0
30 1 7.908379059602341 7.908388060473345 1.5286127206201114 0 0 0
31 1 9.473649653322513 6.343110370754661 -0.042076350152521584 0 0 0
32 1 11.038931960048888 7.908384153070978 1.5286030628862184 0 0 0
33 1 12.604206482406937 6.343104384057768 -0.04207899648256238 0 0 0
34 1 14.169489931352405 7.908384172894788 1.528599358314662 0 0 0
35 1 15.734767124169238 6.343108073949478 -0.042074892814179456 0 0 0
36 1 17.30004792972506 7.908387250186367 1.5285991347952075 0 0 0
37 1 0.08200333293884925 9.473655700071381 -0.04205017285860606 0 0 0
38 1 1.6472779266739803 11.038936653718752 1.5286234642737315 0 0 0
39 1 3.212552548727845 9.473655721185645 -0.042050016207228834 0 0 0
40 1 4.777832551797138 11.038938175263011 1.5286215032623367 0 0 0
41 1 6.343100852252493 9.473662082524275 -0.04206409046446899 0 0 0
42 1 7.908385849051565 11.03893935462723 1.5286122926429162 0 0 0
43 1 9.473654973306948 9.47366292112219 -0.04207627447097961 0 0 0
44 1 11.038940130232852 11.038937846993758 1.528605276060743 0 0 0
45 1 12.604211751608492 9.473658976315493 -0.04207588802200457 0 0 0
46 1 14.16949628135483 11.038937734025236 1.5285973211666113 0 0 0
47 1 15.734769865378233 9.473660861880512 -0.04208497083373758 0 0 0
48 1 17.300049960395466 11.038938664324585 1.5285975529004168 0 0 0
49 1 0.0819996174202026 12.604205047788547 -0.04206863418571866 0 0 0
50 1 1.6472780151505704 14.16948766916304 1.5286035290835558 0 0 0
51 1 3.212556179199215 12.604205120051988 -0.04206872172714327 0 0 0
52 1 4.777832919474011 14.169490201355911 1.5286060942091975 0 0 0
53 1 6.343109658856758 12.604211590560727 -0.04206823288572251 0 0 0
54 1 7.90838913221022 14.169494373552858 1.5286046430265645 0 0 0
55 1 9.47366591394162 12.6042153104042 -0.04206729188948027 0 0 0
56 1 11.038944940658558 14.169494318257533 1.5286063269249428 0 0 0
57 1 12.604218972934158 12.604215949431767 -0.04207381787252291 0 0 0
58 1 14.169498541540673 14.169491260437871 1.5286014427631305 0 0 0
59 1 15.734775143535494 12.604214985282713 -0.04208308387528456 0 0 0
60 1 17.300054166965904 14.169498331071436 1.5285948295172775 0 0 0
425 1 6.343109436836292 15.73477195728941 15.710455032614346 0 0 0
62 1 1.647278024790172 17.300046784242298 1.528591454995809 0 0 0
63 1 3.2125564349470888 15.73476278183877 -0.042079513679593956 0 0 0
64 1 4.777831879778126 17.30004696607306 1.5285949202349995 0 0 0
65 1 6.343109911015066 15.734766063664464 -0.04207880915925616 0 0 0
66 1 7.908387948247006 17.30004749669408 1.5285916130827353 0 0 0
67 1 9.473669724832446 15.734766318096531 -0.04208323929642264 0 0 0
68 1 11.038942356071596 17.300046562886713 1.528591312778558 0 0 0
69 1 12.604221460246393 15.734765009303164 -0.042088372902980765 0 0 0
70 1 14.16949100370103 17.300045987303978 1.528591517423729 0 0 0
71 1 15.734774148447134 15.734767192994155 -0.04208334032463461 0 0 0
72 1 17.30003673454004 17.300038448967765 1.528616505485024 0 0 0
424 1 4.7778311926219095 17.300048534414234 17.28815467152833 0 0 0
74 1 1.6472778263979895 1.6472762880761267 4.667115086092862 0 0 0
423 1 3.2125549338838035 15.734770463606681 15.710456477351762 0 0 0
76 1 4.777836202021315 1.6472776974016465 4.667119955025166 0 0 0
1123 1 9.47366347754164 18.865325997029146 9.399637514625027 0 0 0
78 1 7.908391731816718 1.6472801918936184 4.667126263568127 0 0 0
1125 1 12.604221204665322 18.86532599686111 9.39963754885498 0 0 0
80 1 11.038945561875101 1.647282191536029 4.667122018861494 0 0 0
169 1 0.08200156563461411 6.343105124007128 6.2441399592184785 0 0 0
82 1 14.169497702573054 1.6472824177817744 4.667107232574206 0 0 0
85 1 0.08199923936068718 3.2125485706266064 3.0855527349511718 0 0 0
84 1 17.300052126510167 1.6472814887938079 4.6670970784629136 0 0 0
422 1 1.6472773665919371 17.300047882477063 17.28815598778832 0 0 0
86 1 1.6472778492926405 4.777825694667268 4.667120641374684 0 0 0
87 1 3.2125565523102666 3.2125485472367856 3.0855525871265805 0 0 0
88 1 4.7778319963513285 4.777827668854963 4.667118252360366 0 0 0
89 1 6.3431124513458315 3.212554344597187 3.085554761221358 0 0 0
90 1 7.908384445890625 4.777834202651692 4.6671144362131125 0 0 0
91 1 9.473665294462378 3.2125603083901533 3.0855547644485743 0 0 0
92 1 11.03893904530257 4.777838238397624 4.667107729799218 0 0 0
93 1 12.604217147907171 3.212561236463934 3.085545052018066 0 0 0
94 1 14.169495403215542 4.777836322948612 4.667102262779552 0 0 0
95 1 15.73477178584548 3.2125588509330663 3.08553588946576 0 0 0
96 1 17.30005105698079 4.777835637162785 4.667098799321875 0 0 0
421 1 0.08200030227965384 15.734770515162763 15.71045648923478 0 0 0
98 1 1.6472778254975287 7.908381997844346 4.667120587848388 0 0 0
99 1 3.2125542399213876 6.343101600162283 3.0855559002719226 0 0 0
100 1 4.777828945834372 7.908383990171139 4.667116759985274 0 0 0
101 1 6.343105588392569 6.343108530166081 3.0855493802892697 0 0 0
102 1 7.908382943839205 7.908388697722682 4.667108468540432 0 0 0
103 1 9.473657431229473 6.343113541560652 3.085540893513892 0 0 0
104 1 11.038938280227207 7.908389295352095 4.667100995558371 0 0 0
105 1 12.604214309984416 6.343112417991837 3.085534449980672 0 0 0
106 1 14.169493285488091 7.908386480886812 4.667097216818831 0 0 0
107 1 15.734770955538513 6.343111446302817 3.0855326725832946 0 0 0
108 1 17.300049773456784 7.908389558322996 4.667094336951349 0 0 0
420 1 17.300047422767168 14.169493582918115 17.288147773341663 0 0 0
110 1 1.6472778041549467 11.038940427020618 4.6671154879868775 0 0 0
111 1 3.2125542975316335 9.473661163469245 3.0855556634372303 0 0 0
112 1 4.7778322614408095 11.03894218940898 4.667112239189383 0 0 0
113 1 6.3431076499727155 9.473664402048367 3.0855482830440044 0 0 0
114 1 7.908387276394359 11.038942072042165 4.66710674146489 0 0 0
115 1 9.473662146229083 9.47366452364728 3.085536233444602 0 0 0
116 1 11.038940200543196 11.038940459479214 4.667100048647131 0 0 0
117 1 12.604215768015889 9.473662025974802 3.0855305594531846 0 0 0
118 1 14.169496639539254 11.038938026159949 4.667092728896018 0 0 0
119 1 15.734770189198647 9.473661573838733 3.0855265260134104 0 0 0
120 1 17.30005148103613 11.038938471318561 4.667091845788261 0 0 0
419 1 15.734770087593292 12.604217150583853 15.710448591198505 0 0 0
122 1 1.64727793433612 14.16949356281434 4.667098982264002 0 0 0
123 1 3.2125559638187053 12.604216128110771 3.0855425893165833 0 0 0
124 1 4.777834053474567 14.16949562550405 4.667098993751728 0 0 0
125 1 6.343113103237715 12.604219248312189 3.0855406642915093 0 0 0
126 1 7.908390351421903 14.169498044936104 4.667100662930209 0 0 0
127 1 9.473665889049835 12.604218264051058 3.085538431702777 0 0 0
128 1 11.0389438671627 14.169497189948206 4.667097355538222 0 0 0
129 1 12.604220411356554 12.604214357527432 3.08553260395923 0 0 0
130 1 14.169495663413253 14.169492399483278 4.667095409886139 0 0 0
131 1 15.734775716078268 12.604215507275816 3.0855267030821136 0 0 0
132 1 17.300047991646398 14.169491585355122 4.667093749349864 0 0 0
418 1 14.169492962023924 14.169494070944896 17.28815083676095 0 0 0
134 1 1.6472780223965255 17.300048202574928 4.667088422554941 0 0 0
135 1 3.212554709415059 15.734770138811555 3.085526964512337 0 0 0
136 1 4.7778328925581945 17.30004960382806 4.667088566501324 0 0 0
137 1 6.343111486997785 15.734772579927842 3.085529259493497 0 0 0
138 1 7.908388039220896 17.300051073134195 4.66709059468501 0 0 0
139 1 9.47366504921429 15.734773316961316 3.0855280612917064 0 0 0
140 1 11.038941829010788 17.300049816391702 4.667086825515293 0 0 0
141 1 12.604220192339639 15.734771239382383 3.085525283942057 0 0 0
142 1 14.169494502948552 17.30004868717635 4.667090169366765 0 0 0
143 1 15.734767927412944 15.73476807070001 3.0855318817955877 0 0 0
144 1 17.300046883195055 17.300045645954196 4.66709803638252 0 0 0
1127 1 15.734774773260618 18.865325996725627 9.399636469936004 0 0 0
146 1 1.6472778224163933 1.6472786729912545 7.821999965264243 0 0 0
417 1 12.604216491462882 12.604216989253873 15.710451993090363 0 0 0
148 1 4.777834314767625 1.647279312636756 7.822004434337469 0 0 0
981 1 12.604219759038903 18.86532599511869 3.0855190118793834 0 0 0
150 1 7.908390354963938 1.6472805627590696 7.822007090916714 0 0 0
265 1 0.08200109507046376 12.604218839948457 9.39965412385582 0 0 0
152 1 11.0389460539879 1.6472818357469594 7.822000787565978 0 0 0
416 1 11.038940978484307 14.169494624763505 17.288154828486565 0 0 0
154 1 14.16950026196806 1.6472817772784079 7.821990013189818 0 0 0
979 1 9.473665804863424 18.8653259961502 3.085519439668866 0 0 0
156 1 17.300053260955927 1.6472802145175058 7.821982517730725 0 0 0
415 1 9.473665461885231 12.604216838803199 15.710456819086605 0 0 0
158 1 1.6472777582908582 4.777829518034318 7.822003559261073 0 0 0
159 1 3.2125562500593903 3.212552459031371 6.2441396572445305 0 0 0
160 1 4.777831786399721 4.777831029812047 7.822002315811371 0 0 0
161 1 6.343111143278057 3.2125548286165215 6.24414124837809 0 0 0
162 1 7.908385469474411 4.777834077320872 7.8219963796664365 0 0 0
163 1 9.473665356692392 3.212558786027307 6.244137921165448 0 0 0
164 1 11.038940436641433 4.777835591822865 7.821989504447244 0 0 0
165 1 12.60422028633208 3.2125599754206275 6.244128983033078 0 0 0
166 1 14.169497117927417 4.777833990232769 7.821984999457441 0 0 0
167 1 15.734775457598982 3.212558288767346 6.244121354585399 0 0 0
168 1 17.300052257125095 4.777834850210905 7.821982009384822 0 0 0
907 1 9.473662777949075 18.865325995657507 -0.0420872197795453 0 0 0
170 1 1.6472776592355016 7.908384946630089 7.822000453903353 0 0 0
171 1 3.2125540165151523 6.34310520752326 6.244139956036816 0 0 0
172 1 4.777829676867818 7.908386314957681 7.821997268791968 0 0 0
173 1 6.343105705672575 6.343108562860653 6.244134299417236 0 0 0
174 1 7.90838280640696 7.9083875093321225 7.821989528434235 0 0 0
175 1 9.473660718726345 6.343112698099707 6.244126672638857 0 0 0
176 1 11.038939264248324 7.908388007640918 7.821984935467898 0 0 0
177 1 12.604217205599884 6.34311246459726 6.244122807380402 0 0 0
178 1 14.169494813656513 7.908387700653101 7.821981219886584 0 0 0
179 1 15.734773302240745 6.343111988319761 6.244119875114751 0 0 0
180 1 17.300048839655656 7.908390500704833 7.8219785572241305 0 0 0
977 1 6.34311148897794 18.865325996622712 3.085519725451859 0 0 0
182 1 1.6472778313575276 11.038941883456461 7.821996306724922 0 0 0
183 1 3.2125537509868964 9.473663526035825 6.24413663391749 0 0 0
184 1 4.777831261276191 11.03894197907853 7.8219927069330755 0 0 0
185 1 6.343106355003895 9.473664263131255 6.244130427011 0 0 0
186 1 7.908385575567275 11.038941579072304 7.821986815838799 0 0 0
187 1 9.473662092086776 9.473665459195667 6.244124975786227 0 0 0
188 1 11.038941086286696 11.0389424218182 7.821983593855954 0 0 0
189 1 12.604216642411341 9.473664924028386 6.244118623634578 0 0 0
190 1 14.169493788213927 11.038940033063971 7.821978652817791 0 0 0
191 1 15.734771452280624 9.473664029800279 6.244114657834209 0 0 0
192 1 17.300051607374726 11.038941812377333 7.821974669875561 0 0 0
911 1 15.73477071334189 18.865325991054608 -0.042075322967055614 0 0 0
194 1 1.6472777977571154 14.169496764620314 7.821984966018809 0 0 0
195 1 3.212555117285808 12.60421950166303 6.244127996533899 0 0 0
196 1 4.777831259092854 14.169495594813641 7.821982952539948 0 0 0
197 1 6.343110811046827 12.604219484974868 6.244124430066703 0 0 0
198 1 7.908386662272101 14.169496315814095 7.821981923735935 0 0 0
199 1 9.47366678921221 12.604220675727426 6.244122541120307 0 0 0
200 1 11.038942941718606 14.169495973285807 7.821980405795497 0 0 0
201 1 12.60421957726501 12.604216436791274 6.244116149182358 0 0 0
202 1 14.169495771521259 14.169494964522201 7.82197587079962 0 0 0
203 1 15.734772592863287 12.60421444952653 6.244115432734953 0 0 0
204 1 17.300050801947734 14.169494224925447 7.821974447417872 0 0 0
325 1 0.08199967028285626 9.473664182201455 12.555070920068916 0 0 0
206 1 1.6472778714521235 17.300048586142292 7.821974227659831 0 0 0
207 1 3.2125549256295987 15.734771715674864 6.244113655222351 0 0 0
208 1 4.77783041855601 17.300048834382082 7.821973295719972 0 0 0
209 1 6.343110171198953 15.7347733032911 6.244115508344027 0 0 0
210 1 7.908386414057996 17.300050449674572 7.82197581464628 0 0 0
211 1 9.473666318959555 15.7347751968052 6.244117171211805 0 0 0
212 1 11.03894412169541 17.300050400843578 7.82197476838053 0 0 0
213 1 12.604219137209025 15.734772743025204 6.244112925494395 0 0 0
214 1 14.169496081851358 17.30005006445695 7.821973587183136 0 0 0
215 1 15.73477258461886 15.734771212318512 6.244115496085457 0 0 0
216 1 17.300051575621254 17.300048825397127 7.821975466262214 0 0 0
385 1 0.08200012229340153 6.343112788335607 15.71047674817334 0 0 0
218 1 1.6472776322889469 1.647279047371635 10.977375469490864 0 0 0
313 1 0.08200077472425024 6.343112290773115 12.555074086900161 0 0 0
220 1 4.777832380779527 1.647280679890142 10.977376470981179 0 0 0
1933 1 18.865324176427713 15.734767434135016 3.0855311081749695 0 0 0
222 1 7.90838944467683 1.647281474089836 10.977376703586703 0 0 0
349 1 0.08200060602614674 15.734770136104158 12.555054402185972 0 0 0
224 1 11.038945371407795 1.6472808129447056 10.97737217150089 0 0 0
181 1 0.08200179928321391 9.47366348707354 6.2441365865203755 0 0 0
226 1 14.169498727299887 1.6472812479017698 10.977364097106403 0 0 0
373 1 0.08200116585054168 3.2125594898273673 15.710475762491807 0 0 0
228 1 17.300052058482283 1.647280864479185 10.977359204255375 0 0 0
414 1 7.908389504301398 14.169494530212589 17.288158314908344 0 0 0
230 1 1.647277755152044 4.777833045011889 10.97737598938095 0 0 0
231 1 3.2125551442042517 3.2125551237108696 9.399665931623563 0 0 0
232 1 4.777832340071968 4.777834553016784 10.977374916005854 0 0 0
233 1 6.343110464009929 3.2125574887779837 9.39966603373106 0 0 0
234 1 7.90838615507919 4.777834498511463 10.977370895429031 0 0 0
235 1 9.47366535521137 3.212557960774974 9.399661506643051 0 0 0
236 1 11.038940596018001 4.77783250804994 10.977363252565276 0 0 0
237 1 12.60422041738975 3.212557654999232 9.399653494529124 0 0 0
238 1 14.169495879229158 4.777832440613325 10.977358936980158 0 0 0
239 1 15.734776041825674 3.212557672672918 9.39964793788552 0 0 0
240 1 17.300051391238906 4.777833373555497 10.977356844213425 0 0 0
413 1 6.343112603500987 12.604216609230761 15.710462446579045 0 0 0
242 1 1.6472777436603985 7.908387416662531 10.977373742386543 0 0 0
243 1 3.2125543004949524 6.343109153962615 9.399664797533493 0 0 0
244 1 4.777830951057729 7.908387635669276 10.977371834778348 0 0 0
245 1 6.343107753161315 6.3431109626472475 9.399659172984041 0 0 0
246 1 7.908384541625342 7.908387213393011 10.977363666033124 0 0 0
247 1 9.473661492650688 6.343110652241233 9.399651590685554 0 0 0
248 1 11.038938976155148 7.908384811964761 10.977356577339101 0 0 0
249 1 12.604218075570646 6.343109179844998 9.399646535775126 0 0 0
250 1 14.169494861155085 7.908385765766267 10.977353168440601 0 0 0
251 1 15.734773869346151 6.343110493804354 9.399644848345327 0 0 0
252 1 17.300048934980556 7.908388453560509 10.977351039040895 0 0 0
193 1 0.08200063751012747 12.604219481925808 6.244128055777965 0 0 0
254 1 1.6472777136327694 11.038939915844544 10.977368781380937 0 0 0
255 1 3.2125542171347092 9.473663703736419 9.399660160558422 0 0 0
256 1 4.777831692212962 11.038940908584008 10.977366102852557 0 0 0
257 1 6.343106865878871 9.47366408106731 9.399654783144062 0 0 0
258 1 7.908384659735033 11.038941033772048 10.977359321508617 0 0 0
259 1 9.473661327435755 9.47366365164132 9.399648026984345 0 0 0
260 1 11.038938923068114 11.03893989592243 10.977353498255765 0 0 0
261 1 12.604216922408016 9.473662860550027 9.399645319120115 0 0 0
262 1 14.169495401126317 11.038941304936257 10.97735009423381 0 0 0
263 1 15.734771690824035 9.473666490816123 9.399639542047904 0 0 0
264 1 17.30004948139878 11.038943981209188 10.977347576418335 0 0 0
412 1 4.777835455723635 14.169494446933019 17.288160460570126 0 0 0
266 1 1.6472777595103072 14.169494192193929 10.977360763210905 0 0 0
267 1 3.212554302921419 12.604218786093924 9.399653937697082 0 0 0
268 1 4.777831712089441 14.16949389885135 10.977358839977732 0 0 0
269 1 6.343107747469072 12.604218680493268 9.399648983498262 0 0 0
270 1 7.908385560140092 14.169495437099126 10.977353691125517 0 0 0
271 1 9.473662381500732 12.604218502054863 9.39964526676861 0 0 0
272 1 11.038941395299716 14.169495633122256 10.97735033426208 0 0 0
273 1 12.60421852731283 12.604218488887714 9.399641797708258 0 0 0
274 1 14.169496372901506 14.169495675928658 10.977348483048466 0 0 0
275 1 15.734772522761194 12.604219120095442 9.399637949218933 0 0 0
276 1 17.300049900096447 14.169496117283241 10.977346693092521 0 0 0
411 1 3.212556654830257 12.604216894937455 15.710466680271807 0 0 0
278 1 1.6472777770060432 17.300047847517234 10.977351085054929 0 0 0
279 1 3.212555044225504 15.734771823242985 9.399642802330073 0 0 0
280 1 4.777830186733564 17.300048281989884 10.97734976754749 0 0 0
281 1 6.3431081003206105 15.734772078488316 9.399640857830256 0 0 0
282 1 7.908382901617106 17.3000488760135 10.977347657932953 0 0 0
283 1 9.473664671870328 15.73477392665035 9.399639764474937 0 0 0
284 1 11.038939837142266 17.30004974717532 10.977347684233333 0 0 0
285 1 12.604220621808185 15.734773284383845 9.399638910174431 0 0 0
286 1 14.16949667540589 17.300049512213583 10.977347913750679 0 0 0
287 1 15.734774161733338 15.734773526464455 9.399636675467873 0 0 0
288 1 17.300050535161283 17.30004897953308 10.977347380845664 0 0 0
410 1 1.6472775310528296 14.169493504808921 17.288161971495665 0 0 0
290 1 1.6472775618043833 1.6472816843103752 14.132775352513933 0 0 0
409 1 0.08199851590250977 12.604216981420915 15.710466699502854 0 0 0
292 1 4.777831940064885 1.647281247453705 14.13277565775152 0 0 0
408 1 17.300048940972914 11.03893998817334 17.288150271205133 0 0 0
294 1 7.90838611158357 1.6472804637810412 14.13277530078501 0 0 0
337 1 0.08200065301244643 12.604215376115059 12.555064492054473 0 0 0
296 1 11.038942240881662 1.6472796574451893 14.13277323832498 0 0 0
121 1 0.08199990204255987 12.60421597138651 3.0855426253589116 0 0 0
298 1 14.169496931264204 1.6472810106903024 14.132767933181853 0 0 0
407 1 15.734771071843454 9.473664081940964 15.71045087465411 0 0 0
300 1 17.300051061250187 1.6472809142083675 14.132761477047527 0 0 0
301 1 0.08200056434801198 3.212557749089522 12.555074241398923 0 0 0
302 1 1.6472774695005004 4.777836473706886 14.132775523427911 0 0 0
303 1 3.2125546796746245 3.2125577771609457 12.555074282815717 0 0 0
304 1 4.7778312214752505 4.777835480711912 14.132774251757917 0 0 0
305 1 6.343109722885472 3.212557837313013 12.55507416226965 0 0 0
306 1 7.90838679948312 4.777833419314845 14.132771791974976 0 0 0
307 1 9.473665496693702 3.2125571044695596 12.555071214254248 0 0 0
308 1 11.038940621743537 4.777832021554849 14.132766974818638 0 0 0
309 1 12.604219576757211 3.2125563438978975 12.55506553508145 0 0 0
310 1 14.169494315931288 4.777833546494119 14.132761009351551 0 0 0
311 1 15.734773918088072 3.21255707526618 12.555059676407625 0 0 0
312 1 17.300049851603433 4.777834475832642 14.132757331361262 0 0 0
406 1 14.169494726437662 11.038940533385432 17.288154167610468 0 0 0
314 1 1.6472776214104767 7.908389338157272 14.132776213231484 0 0 0
315 1 3.212554405723591 6.343112307347182 12.555074247061645 0 0 0
316 1 4.77783280949209 7.908387975090531 14.132773733734474 0 0 0
317 1 6.343109190258617 6.343111838360765 12.555070137169212 0 0 0
318 1 7.908386907369343 7.908385122399625 14.132767711657458 0 0 0
319 1 9.473663169770559 6.3431093028604035 12.555062875217061 0 0 0
320 1 11.03893979075862 7.908385463236464 14.132759082815806 0 0 0
321 1 12.604216238607654 6.343108086096953 12.555056791186189 0 0 0
322 1 14.169492611181411 7.908385856389603 14.132754005761406 0 0 0
323 1 15.73477181195857 6.343109660862227 12.55505415952718 0 0 0
324 1 17.300049359988808 7.908387630183316 14.132751429009454 0 0 0
97 1 0.0820013883833822 6.343101503114663 3.08555578410482 0 0 0
326 1 1.6472775820581889 11.03893938054088 14.132771972894554 0 0 0
327 1 3.212555584953138 9.473664278331638 12.555071032686866 0 0 0
328 1 4.777833270064284 11.038938945488967 14.132769310450394 0 0 0
329 1 6.343109814800361 9.47366400471899 12.555065821082424 0 0 0
330 1 7.908388311435775 11.038938953084568 14.13276130243095 0 0 0
331 1 9.473661996947003 9.473662145520569 12.555057276202554 0 0 0
332 1 11.038940120178173 11.038938768745039 14.132754191799545 0 0 0
333 1 12.604216543657808 9.473662132446691 12.555050762273227 0 0 0
334 1 14.169493307597477 11.038939568250171 14.132749630428407 0 0 0
335 1 15.734771323769873 9.473663232271111 12.55504866100538 0 0 0
336 1 17.30004882289762 11.038941127811356 14.132748087528688 0 0 0
205 1 0.08200089470771836 15.734771784485623 6.244113712983931 0 0 0
338 1 1.6472775950171656 14.169492851573489 14.13276194616198 0 0 0
339 1 3.2125546148067143 12.604215580988768 12.555064528714189 0 0 0
340 1 4.777832558435211 14.169492939096019 14.132759479847909 0 0 0
341 1 6.343109176413109 12.60421666928119 12.55506022566308 0 0 0
342 1 7.908386142953359 14.169494150765354 14.13275604470303 0 0 0
343 1 9.47366260564715 12.604217425720174 12.5550532452403 0 0 0
344 1 11.038939399230737 14.169494461623927 14.132750584889736 0 0 0
345 1 12.604216892478599 12.604216494520967 12.555048947494424 0 0 0
346 1 14.169493056228058 14.169494037317362 14.132748087065906 0 0 0
347 1 15.734772321008744 12.604218085087885 12.555048406143078 0 0 0
348 1 17.300048963831603 14.16949521232455 14.132748138871992 0 0 0
2701 1 18.86530662536569 18.865325983547844 -0.041965527598872066 0 0 0
350 1 1.6472776753275953 17.30004819664678 14.132752663700998 0 0 0
351 1 3.2125546505266946 15.734770273882589 12.555054389095368 0 0 0
352 1 4.777830496603435 17.300048467218396 14.132751913227821 0 0 0
353 1 6.343107899193179 15.734771283114076 12.55505229582077 0 0 0
354 1 7.908384817414807 17.300049507368815 14.13274960154509 0 0 0
355 1 9.473661220867262 15.734771644738805 12.555048439232726 0 0 0
356 1 11.03893863154232 17.300048971385802 14.132747256734868 0 0 0
357 1 12.604216984824086 15.73477189140364 12.55504682012681 0 0 0
358 1 14.169493502964047 17.30004879296066 14.132746750580964 0 0 0
359 1 15.734772256169887 15.734772073370918 12.555046751997457 0 0 0
360 1 17.300050151123134 17.30004919387928 14.13274718711154 0 0 0
432 1 17.300046941155134 17.30004838420676 17.288146919125584 0 0 0
362 1 1.6472773752584298 1.6472816706478035 17.28817588067694 0 0 0
431 1 15.73477014785095 15.73477192246834 15.710447926768802 0 0 0
364 1 4.77782934731653 1.6472813951464196 17.288176153044585 0 0 0
430 1 14.169491349779381 17.3000489615615 17.2881489296808 0 0 0
366 1 7.908382731363927 1.647280438528781 17.288176512594486 0 0 0
429 1 12.60421569649806 15.734771997590542 15.710449238400939 0 0 0
368 1 11.038938947544702 1.6472803811431407 17.288173996398513 0 0 0
428 1 11.038938261920336 17.300049334054705 17.28815160901663 0 0 0
370 1 14.169496392465192 1.6472807887757774 17.288169546503703 0 0 0
427 1 9.473663168411903 15.734772325233477 15.710452150233765 0 0 0
372 1 17.300050854854884 1.647282171568332 17.288164463510373 0 0 0
405 1 12.604217852666523 9.473663237727449 15.710455590428056 0 0 0
374 1 1.647277425259386 4.777836501741909 17.288177204511594 0 0 0
375 1 3.2125538237508957 3.2125593910693055 15.710475751208167 0 0 0
376 1 4.777830878309818 4.777835014811101 17.288177213834903 0 0 0
377 1 6.3431075996977 3.2125581912900616 15.71047539672458 0 0 0
378 1 7.908386023748007 4.777833003686426 17.28817424956322 0 0 0
379 1 9.473662477221486 3.212555787422886 15.710473567319454 0 0 0
380 1 11.03894063885966 4.777833258319909 17.288169608075556 0 0 0
381 1 12.604218017601575 3.2125567642854618 15.710469628075947 0 0 0
382 1 14.169495974515428 4.777835331198531 17.288163490557924 0 0 0
383 1 15.73477283827546 3.2125581129708207 15.710463748250293 0 0 0
384 1 17.300050586240474 4.777836675916351 17.288159547370448 0 0 0
404 1 11.038942490281045 11.038938950250058 17.28815907283049 0 0 0
386 1 1.6472774443975713 7.908388898538946 17.288178023928182 0 0 0
387 1 3.212555014308264 6.343112647422455 15.710476795082066 0 0 0
388 1 4.777833732830176 7.908387721828931 17.28817491275371 0 0 0
389 1 6.343109301869066 6.343109108182474 15.710473727467306 0 0 0
390 1 7.908388093874549 7.908385539666068 17.28816999784661 0 0 0
391 1 9.473664376081311 6.34310891904649 15.710468463934127 0 0 0
392 1 11.038942090554414 7.908386586986663 17.28816442390525 0 0 0
393 1 12.60421723487335 6.343110306118545 15.710462026828294 0 0 0
394 1 14.169494551663004 7.908388330620629 17.288158432561143 0 0 0
395 1 15.734771744964272 6.343112079638359 15.710456444244214 0 0 0
396 1 17.30004888577931 7.908389128226745 17.288153367179778 0 0 0
397 1 0.08199937874990255 9.473664593347674 15.71047559471828 0 0 0
398 1 1.6472775288301016 11.038942353846805 17.28817178012693 0 0 0
399 1 3.2125556593985367 9.473664495404073 15.710475702869948 0 0 0
400 1 4.777835782269006 11.038940924508463 17.288169437144678 0 0 0
401 1 6.343112398983671 9.473662591992918 15.710469194303439 0 0 0
402 1 7.908390421317811 11.038939112702712 17.28816401113821 0 0 0
403 1 9.473665800285765 9.473661822034517 15.710462560505794 0 0 0
241 1 0.08200110957746373 6.343109027813554 9.399664793942792 0 0 0
157 1 0.08199936863775577 3.212552460208173 6.2441398147157114 0 0 0
229 1 0.08200021882593668 3.212555030462898 9.399666010429927 0 0 0
253 1 0.08200127119598703 9.473663655890492 9.399660127221553 0 0 0
133 1 0.08200146072478133 15.73477013241829 3.0855271743463026 0 0 0
277 1 0.08200052537914607 15.734771926255183 9.39964312515389 0 0 0
109 1 0.08200156446162096 9.473660971939745 3.085555508393491 0 0 0
61 1 0.08199955657106273 15.734762728246114 -0.042079279421915354 0 0 0
1837 1 18.865325349097443 9.473665323081166 -0.04208737689332943 0 0 0
1045 1 0.08200170435385142 18.865325997009098 6.244108956449401 0 0 0
1117 1 0.08200198711962738 18.86532599724488 9.399637442906752 0 0 0
901 1 0.08200022039307697 18.8653259965187 -0.0420873370800887 0 0 0
1197 1 12.604216212234245 18.86532599720735 12.555045632832888 0 0 0
1189 1 0.08200162148002854 18.865325997509366 12.55504840553002 0 0 0
1119 1 3.2125535628656703 18.86532599724152 9.399637066016554 0 0 0
1261 1 0.08200166023815401 18.865325997769958 15.71045361161277 0 0 0
903 1 3.2125556580577714 18.865325996567652 -0.04208763156155407 0 0 0
1271 1 15.734769668115417 18.86532599747251 15.710447137240218 0 0 0
1265 1 6.343106672092875 18.865325997661436 15.710451543292091 0 0 0
1047 1 3.2125541485864657 18.86532599699765 6.244108784790771 0 0 0
975 1 3.2125548098132475 18.865325996782484 3.0855210530794954 0 0 0
1193 1 6.343106234503444 18.86532599738435 12.555047212637623 0 0 0
1195 1 9.473660203168249 18.865325997309842 12.555045759090348 0 0 0
1267 1 9.473661618437859 18.865325997554653 15.710449126393401 0 0 0
1263 1 3.212553485932608 18.865325997763332 15.710453540280852 0 0 0
1199 1 15.734772919798752 18.865325997179585 12.555047272995836 0 0 0
1049 1 6.3431089639362135 18.86532599693122 6.244110045395518 0 0 0
1269 1 12.604215081242675 18.865325997475118 15.710447504320387 0 0 0
1191 1 3.2125537134627318 18.865325997512862 12.55504849387862 0 0 0
973 1 0.08200130200471024 18.865325996779788 3.0855212236739176 0 0 0
983 1 15.734768487296025 18.86532599386799 3.0855264143616687 0 0 0
1121 1 6.343105611835511 18.865325997163087 9.399636099619654 0 0 0
485 1 6.343114117967569 12.604218064202678 18.865863919362557 0 0 0
434 1 1.647277291307704 1.6472801906098626 20.443580147645687 0 0 0
461 1 6.343109260167032 6.3431103975772745 18.865876012677244 0 0 0
436 1 4.777828094588274 1.6472805767315941 20.443579802693826 0 0 0