LAMMPS data file via write_data, version 2 Aug 2023, timestep = 4098, units = metal

3601 atoms
3 atom types

0.08200326745367185 37.64864873254658 xlo xhi
0.08199851245657237 37.64865348754348 ylo yhi
-15.830482766796727 53.56113476679676 zlo zhi

Masses

1 183.84
2 1.008
3 4.0026

Atoms # atomic

229 1 0.08223027189724917 3.212552702773758 9.399412886520933 0 0 0
2 1 1.6475056805332111 1.6472782536110244 1.5283531913286477 0 0 0
109 1 0.0822309163824252 9.473669602003206 3.0853339281361767 0 0 0
4 1 4.778061692936269 1.6472769125146587 1.528358473876694 0 0 0
397 1 0.08222333845031911 9.473658238483726 15.710247451549781 0 0 0
6 1 7.908622688818827 1.6472781369119354 1.5283727749139453 0 0 0
133 1 0.08222905389479945 15.734776379083405 3.085350184289432 0 0 0
8 1 11.039175797251636 1.6472762935364846 1.5283911109572195 0 0 0
975 1 3.2127867147491442 18.865325994957544 3.08533729100737 0 0 0
10 1 14.169731151515911 1.647274942398734 1.5284104390635194 0 0 0
426 1 7.908608118395006 17.30004820121405 17.287946591159752 0 0 0
12 1 17.300285028708863 1.6472748558655466 1.5284097386384377 0 0 0
903 1 3.2127750363149583 18.86532599473643 -0.04227482223883835 0 0 0
14 1 1.6475060627668585 4.777838316303285 1.528366567924058 0 0 0
15 1 3.2127868464106335 3.2125631510922146 -0.042316859075569827 0 0 0
16 1 4.7780642055672065 4.777836380691127 1.5283704174188353 0 0 0
17 1 6.3433469589284 3.212559406051753 -0.042308504235770567 0 0 0
18 1 7.9086212759114805 4.777835119121469 1.5283777261883214 0 0 0
19 1 9.473906035812009 3.2125580130917037 -0.042300108562274445 0 0 0
20 1 11.0391762565678 4.777832536244533 1.5283900501815306 0 0 0
21 1 12.604459406562555 3.2125492398145767 -0.042278467291224 0 0 0
22 1 14.169730699064742 4.777830459240522 1.5283969371059396 0 0 0
23 1 15.73501000640591 3.2125476128126094 -0.04227253739339742 0 0 0
24 1 17.300282903349103 4.7778317173270315 1.5284044512771136 0 0 0
25 1 0.0822260319607787 6.34312710366497 -0.042299341445541164 0 0 0
26 1 1.6475073709537644 7.908394359410674 1.5283931037934562 0 0 0
27 1 3.2127855146916326 6.343124301012521 -0.04230008143053548 0 0 0
28 1 4.778062414671329 7.908390532521318 1.5283925411392183 0 0 0
29 1 6.343343544495148 6.343118859004985 -0.042300128922083846 0 0 0
30 1 7.9086177882304405 7.908389504242239 1.5283910469111892 0 0 0
31 1 9.473899861923126 6.343114749505317 -0.04229394619930756 0 0 0
32 1 11.039172686329266 7.908390050592743 1.5283819876378537 0 0 0
33 1 12.60445179353293 6.34310243590297 -0.04229388087670806 0 0 0
34 1 14.169726448586848 7.90838727897148 1.5283708189828187 0 0 0
35 1 15.735009097148845 6.3430982804750045 -0.042292411364341406 0 0 0
36 1 17.3002803173421 7.908389662100753 1.5283795032368779 0 0 0
157 1 0.0822297414005294 3.21255425470244 6.243882763854496 0 0 0
38 1 1.6475091598100549 11.0389500325313 1.5284159635584467 0 0 0
39 1 3.2127833629574445 9.473678067333072 -0.04227591021281673 0 0 0
40 1 4.778062161051876 11.038946985664385 1.5284076112951734 0 0 0
41 1 6.343333935207696 9.47367097268904 -0.04227956769469626 0 0 0
42 1 7.9086152235244125 11.03894582600241 1.528398911971021 0 0 0
43 1 9.47388456493744 9.473670289558992 -0.04228996998209068 0 0 0
44 1 11.039170751897887 11.03894481343904 1.528380459806831 0 0 0
45 1 12.604439749291991 9.473663604981477 -0.04231083948610846 0 0 0
46 1 14.169725689686965 11.03894311210942 1.5283604357324267 0 0 0
47 1 15.735002755842787 9.473659171112422 -0.0423139659150918 0 0 0
48 1 17.30027944833641 11.038946588104054 1.5283613886153382 0 0 0
49 1 0.08223362422426982 12.60422958631057 -0.042261973313392584 0 0 0
50 1 1.6475095860992324 14.169501989315306 1.5284165134939565 0 0 0
51 1 3.2127829278478797 12.604224523749682 -0.042270403294219785 0 0 0
52 1 4.778063543121916 14.169499095819798 1.528404373960899 0 0 0
53 1 6.343336324243162 12.604221395398547 -0.04227775135756625 0 0 0
54 1 7.908617969209049 14.169498638429431 1.5284017323162444 0 0 0
55 1 9.4738877398758 12.604224866418141 -0.04228558298778296 0 0 0
56 1 11.039173467300449 14.169499511699094 1.5283878516155474 0 0 0
57 1 12.604441617593725 12.604224178841113 -0.042306132328627816 0 0 0
58 1 14.169727663028446 14.169497877479907 1.5283703769101367 0 0 0
59 1 15.73500080671389 12.604222555313761 -0.04232070954784133 0 0 0
60 1 17.30028192981346 14.169504155531294 1.528358620916425 0 0 0
425 1 6.343334112140723 15.734769645392511 15.710246992887823 0 0 0
62 1 1.6475068877819665 17.300050344252607 1.5284168507352691 0 0 0
63 1 3.2127819631329952 15.734774983479202 -0.042274717488496295 0 0 0
64 1 4.778060132064197 17.300049507401663 1.5284010421982772 0 0 0
65 1 6.343340000195298 15.734771553359082 -0.0422808472577333 0 0 0
66 1 7.908614463097613 17.300050284067535 1.5283972474806709 0 0 0
67 1 9.473892382737937 15.73477482824002 -0.04228498266019158 0 0 0
68 1 11.039169833541667 17.300050544405185 1.5283914733944735 0 0 0
69 1 12.604446082108783 15.734778156520063 -0.042297689894475264 0 0 0
70 1 14.169723445692322 17.300051524648392 1.5283844226535 0 0 0
71 1 15.73499835267921 15.73478068937416 -0.04230890390150098 0 0 0
72 1 17.300278041028804 17.300053125685427 1.528372249648778 0 0 0
424 1 4.778053681854038 17.30004795845287 17.287946463817995 0 0 0
74 1 1.6475065014263435 1.6472763833744062 4.66685262728493 0 0 0
423 1 3.21277710460097 15.7347694917109 15.710247043401093 0 0 0
76 1 4.778061043071304 1.6472763431043596 4.666856960242174 0 0 0
37 1 0.0822337295679488 9.473681748701708 -0.04227302597091573 0 0 0
78 1 7.908618378998911 1.6472771062190619 4.66686985297685 0 0 0
205 1 0.08222609922775528 15.734775246360469 6.243928222328682 0 0 0
80 1 11.039172137662925 1.6472768646343603 4.666885326611391 0 0 0
13 1 0.08222434597213844 3.212563929545935 -0.04231749539255831 0 0 0
82 1 14.1697272238526 1.6472758780166532 4.666900486935945 0 0 0
409 1 0.08222098586565481 12.604214244459099 15.710246518584057 0 0 0
84 1 17.300280342750458 1.6472775709254928 4.66690382570681 0 0 0
422 1 1.647498807853299 17.300048140522023 17.287946367950447 0 0 0
86 1 1.6475066310824367 4.777832458866166 4.6668656918968825 0 0 0
87 1 3.2127843352542214 3.212556331899088 3.08529135221778 0 0 0
88 1 4.77806339742431 4.777832120759712 4.666867865343786 0 0 0
89 1 6.34334045974862 3.2125540983367147 3.0852980740047804 0 0 0
90 1 7.908619051619577 4.777832673591081 4.666873302934793 0 0 0
91 1 9.473897168457842 3.2125555800463808 3.0853110436430424 0 0 0
92 1 11.03917518361913 4.77783454928609 4.66688312444024 0 0 0
93 1 12.604451648317607 3.2125546469847626 3.085328119790197 0 0 0
94 1 14.169728554934096 4.777834847069674 4.666888039473424 0 0 0
95 1 15.735006025923058 3.212554451196241 3.0853349393052416 0 0 0
96 1 17.300279246488554 4.77783778078812 4.66689481961989 0 0 0
421 1 0.08222002250194768 15.734770515279607 15.710246381557962 0 0 0
98 1 1.6475078885614174 7.908388648704566 4.666885895287958 0 0 0
99 1 3.212784562676478 6.3431106234110635 3.0853097565913026 0 0 0
100 1 4.77806426309588 7.908386732794507 4.666885243019433 0 0 0
101 1 6.343341353034993 6.343109754268008 3.0853107621143665 0 0 0
102 1 7.908620041181694 7.908388015521789 4.666883654632124 0 0 0
103 1 9.473898318563602 6.343112202011317 3.0853151567832495 0 0 0
104 1 11.039175779394494 7.908391330331191 4.666877068201007 0 0 0
105 1 12.604452351077326 6.343112775948465 3.0853138083610596 0 0 0
106 1 14.169727798916941 7.908392887801683 4.666871369991082 0 0 0
107 1 15.735003655378474 6.34311473969706 3.085315881734975 0 0 0
108 1 17.300278001596844 7.908394640146772 4.6668765467997355 0 0 0
420 1 17.300268771584864 14.169498216515793 17.287950836988593 0 0 0
110 1 1.6475096302305372 11.03894576900411 4.666904344792415 0 0 0
111 1 3.21278651205382 9.473667170576023 3.085331400968799 0 0 0
112 1 4.778064575031967 11.038944301854233 4.666897890965214 0 0 0
113 1 6.343341414051956 9.473666196532475 3.085327417678734 0 0 0
114 1 7.908620647181183 11.038944825785311 4.666889760902713 0 0 0
115 1 9.473896677230627 9.473667799543044 3.085317622764485 0 0 0
116 1 11.039177125965418 11.03894423325164 4.6668766109106885 0 0 0
117 1 12.60445193862002 9.473667547336825 3.085300372474565 0 0 0
118 1 14.169728657913183 11.038945405531118 4.6668637020156725 0 0 0
119 1 15.735002771926561 9.47366982661664 3.085296331162064 0 0 0
120 1 17.300279140910956 11.03894736138506 4.6668633486530124 0 0 0
419 1 15.734992090602825 12.604221963197103 15.710247494341427 0 0 0
122 1 1.6475091247553157 14.169500150128297 4.666908568430671 0 0 0
123 1 3.212787615599918 12.604224150523141 3.0853401385155776 0 0 0
124 1 4.778065903519273 14.169498662378896 4.6668998361788825 0 0 0
125 1 6.343341842626792 12.60422242605768 3.085332343147989 0 0 0
126 1 7.908621573022882 14.169498565133583 4.666893823427896 0 0 0
127 1 9.473898881278886 12.604221792901942 3.085321795569084 0 0 0
128 1 11.039177269385496 14.169497480282931 4.666882122651445 0 0 0
129 1 12.604453372695222 12.604220158125914 3.0853036829330165 0 0 0
130 1 14.169730324181954 14.169496877860308 4.666870148896538 0 0 0
131 1 15.735005642596109 12.604222568806083 3.0852917644579505 0 0 0
132 1 17.30027976138073 14.16949806765864 4.6668654620600085 0 0 0
418 1 14.169714100126978 14.16949709520273 17.287949554657235 0 0 0
134 1 1.647508440796264 17.3000511188468 4.66690916656738 0 0 0
135 1 3.2127871765611093 15.73477511460739 3.0853386506001637 0 0 0
136 1 4.778064216939508 17.300050597515597 4.66689865161895 0 0 0
137 1 6.343341219764491 15.73477490950815 3.0853301738854144 0 0 0
138 1 7.908619286072245 17.300050440119737 4.666892166639163 0 0 0
139 1 9.473896792732981 15.73477472732123 3.0853246301563866 0 0 0
140 1 11.039175784278267 17.300049545378794 4.666885282122252 0 0 0
141 1 12.604452438242378 15.734773189209584 3.085313245950432 0 0 0
142 1 14.169729338567308 17.300049593998445 4.666880061999316 0 0 0
143 1 15.73500402193818 15.734774350900201 3.0853034161419655 0 0 0
144 1 17.30028104466669 17.3000485523232 4.666872945542243 0 0 0
97 1 0.08222914422586089 6.34311269135084 3.0853099771154446 0 0 0
146 1 1.6475066968400434 1.6472757981590767 7.821741022912074 0 0 0
417 1 12.604440501958782 12.604218904326075 15.710246132159138 0 0 0
148 1 4.7780609319572305 1.6472759838744764 7.821744034545197 0 0 0
61 1 0.08222753671559586 15.734777314563132 -0.04225715230145306 0 0 0
150 1 7.908615990499652 1.6472768259402388 7.82175490488335 0 0 0
911 1 15.734995964341964 18.865325987401565 -0.04230170062671645 0 0 0
152 1 11.039170259875338 1.6472775950570346 7.821768144804047 0 0 0
416 1 11.039161066231848 14.169494344230284 17.2879475559718 0 0 0
154 1 14.169724380828496 1.6472769046833966 7.821779852027172 0 0 0
169 1 0.082229355248805 6.3431107221009135 6.243896826995845 0 0 0
156 1 17.300276311472985 1.6472789574014093 7.82178588132841 0 0 0
415 1 9.473888108872753 12.604215640497648 15.7102450920591 0 0 0
158 1 1.6475065838591432 4.777831065909227 7.821752151758468 0 0 0
159 1 3.212784202244176 3.2125541153943367 6.243881675863849 0 0 0
160 1 4.778062283507839 4.7778306258540955 7.821753263322757 0 0 0
161 1 6.343339444716426 3.212553819642766 6.243886831879405 0 0 0
162 1 7.908617522897834 4.77783209168454 7.82175761211645 0 0 0
163 1 9.473895811504153 3.212555800738947 6.243898590364185 0 0 0
164 1 11.039173134235334 4.777834476450015 7.821765470616293 0 0 0
165 1 12.604450094695366 3.2125554809422634 6.243910525868992 0 0 0
166 1 14.16972517616796 4.777836627804154 7.821770194027136 0 0 0
167 1 15.735002698975835 3.21255705844481 6.243917339247304 0 0 0
168 1 17.300275624564925 4.77783945617156 7.82177559090644 0 0 0
181 1 0.08222987118480789 9.473667687220356 6.243913957602212 0 0 0
170 1 1.6475069085959166 7.9083863041046305 7.8217670047176115 0 0 0
171 1 3.212785260875618 6.343108625489219 6.243896758936469 0 0 0
172 1 4.778063504278019 7.908385414141016 7.821766401726421 0 0 0
173 1 6.343341931833725 6.3431090225637945 6.243898054814143 0 0 0
174 1 7.9086192615211734 7.908388014777113 7.8217649043858 0 0 0
175 1 9.4738975944342 6.3431118566935005 6.243900203663999 0 0 0
176 1 11.03917424354197 7.908390703532557 7.821761569385461 0 0 0
177 1 12.604451470586161 6.343113737362305 6.243900427764237 0 0 0
178 1 14.1697258024494 7.908393822060885 7.821760242642964 0 0 0
179 1 15.73500143461538 6.343117002894537 6.243903827520761 0 0 0
180 1 17.30027549132513 7.908396589857722 7.821763733952752 0 0 0
253 1 0.08222754791427363 9.473663340070473 9.39943551997406 0 0 0
182 1 1.6475073817264778 11.03894311561082 7.821780750207965 0 0 0
183 1 3.2127867426027215 9.473664559017843 6.243913485211206 0 0 0
184 1 4.778063455038144 11.038941771259264 7.82177711959157 0 0 0
185 1 6.343341957872226 9.473665538150065 6.243909163739771 0 0 0
186 1 7.908619933168387 11.038943342521096 7.821770584422147 0 0 0
187 1 9.473897862521016 9.473667262594164 6.243902367955437 0 0 0
188 1 11.03917562247227 11.0389442451245 7.821761840732255 0 0 0
189 1 12.604452344886502 9.473668916974159 6.243893045005482 0 0 0
190 1 14.169726795937384 11.03894702871938 7.821755248295142 0 0 0
191 1 15.735002254108931 9.473671070393054 6.243890923832346 0 0 0
192 1 17.300278187569376 11.038950004794787 7.821755038060804 0 0 0
85 1 0.08222890749729646 3.2125558567316856 3.0852909773016433 0 0 0
194 1 1.6475054513229739 14.169497588683855 7.821786759313977 0 0 0
195 1 3.2127873055432095 12.604222022518247 6.243922862791358 0 0 0
196 1 4.778064314621751 14.169497234450194 7.821781793506825 0 0 0
197 1 6.343342944044671 12.604220970044798 6.243915752813185 0 0 0
198 1 7.908620914348669 14.16949705926771 7.821773895400862 0 0 0
199 1 9.47389971398027 12.604220716955874 6.243906294643382 0 0 0
200 1 11.039175884250765 14.169497452243977 7.821766211808491 0 0 0
201 1 12.604453041305415 12.604221609238751 6.24389471543586 0 0 0
202 1 14.169730022702721 14.169498945565214 7.821758174490873 0 0 0
203 1 15.73500431284133 12.604221456910285 6.243888687421038 0 0 0
204 1 17.30027993439126 14.169498928520927 7.821756653761618 0 0 0
241 1 0.08222853036848864 6.343108369695288 9.399423769208505 0 0 0
206 1 1.6475044448332963 17.30005027257483 7.821787925024597 0 0 0
207 1 3.2127864153891115 15.734774369796543 6.243924276705283 0 0 0
208 1 4.778063469949011 17.300049621369567 7.8217822494718865 0 0 0
209 1 6.343342545934663 15.734774453905285 6.243916316599644 0 0 0
210 1 7.908620030317806 17.30005009510134 7.821774810335511 0 0 0
211 1 9.473898986312596 15.734774256522366 6.243909339137302 0 0 0
212 1 11.039175987699778 17.30005049917614 7.8217681837670945 0 0 0
213 1 12.604453789458262 15.734773540916668 6.243901238334457 0 0 0
214 1 14.169730398312417 17.30005023449119 7.821764408851854 0 0 0
215 1 15.735006330019218 15.7347744956875 6.243894391716928 0 0 0
216 1 17.300281547828565 17.300048888945373 7.821761791744236 0 0 0
385 1 0.08222468038050718 6.343103159795441 15.710245209790058 0 0 0
218 1 1.647506003664991 1.6472744424064445 10.977120842451711 0 0 0
337 1 0.082221874546039 12.604214127740386 12.554848625426498 0 0 0
220 1 4.7780577535586835 1.6472750397447464 10.977122575653127 0 0 0
373 1 0.08222450290951033 3.2125499571743332 15.710240266368835 0 0 0
222 1 7.908611886968794 1.6472761119725277 10.977130825226435 0 0 0
193 1 0.08222812939446605 12.604223143395524 6.243924228661032 0 0 0
224 1 11.039164647579643 1.6472773196343884 10.977141233746162 0 0 0
403 1 9.473885909291162 9.47366083237018 15.710246233224085 0 0 0
226 1 14.169717819898802 1.647277220702805 10.977150882053497 0 0 0
402 1 7.908607664139102 11.038937264893429 17.287946652274215 0 0 0
228 1 17.300271130406248 1.6472794550229037 10.977156137173965 0 0 0
414 1 7.908608175358364 14.169492358581993 17.287946473619172 0 0 0
230 1 1.6475056639648842 4.777828749525038 10.977129424167689 0 0 0
231 1 3.2127833097082332 3.212552321366239 9.399410952329337 0 0 0
232 1 4.778059352300496 4.777828303235901 10.977129514123435 0 0 0
233 1 6.343337137406956 3.2125525828343475 9.399415576800072 0 0 0
234 1 7.908613085995077 4.777830160557557 10.977133156065339 0 0 0
235 1 9.473892557553553 3.2125552640730253 9.399424468880587 0 0 0
236 1 11.03916732076977 4.7778334989347195 10.97713975411343 0 0 0
237 1 12.60444612955998 3.2125565853380085 9.399434373305525 0 0 0
238 1 14.169718832523275 4.7778359388659934 10.977144542380433 0 0 0
239 1 15.734997818871905 3.212558465774432 9.399441022905256 0 0 0
240 1 17.30027118213097 4.777839365933106 10.977147469276614 0 0 0
413 1 6.343333855643491 12.604213691733635 15.710246062459149 0 0 0
242 1 1.647504523029507 7.908383062838111 10.977140474798833 0 0 0
243 1 3.212783525708678 6.3431068170498275 9.39942288068986 0 0 0
244 1 4.778060615887062 7.908382292926515 10.977138959037468 0 0 0
245 1 6.343339586019958 6.3431072196433345 9.399423403814438 0 0 0
246 1 7.90861525894691 7.90838495671615 10.977138596395559 0 0 0
247 1 9.473894036525799 6.343110985119058 9.399425622428373 0 0 0
248 1 11.039168737264651 7.90838890110634 10.977137771910382 0 0 0
249 1 12.604447822321426 6.34311392220418 9.399427760052367 0 0 0
250 1 14.169720180353053 7.90839300776863 10.977137712892668 0 0 0
251 1 15.7349977488643 6.343117457305572 9.399431248965264 0 0 0
252 1 17.300271143085887 7.908397260477362 10.977139465544273 0 0 0
265 1 0.08222422129551055 12.60421884649308 9.399443264898837 0 0 0
254 1 1.6475041191952906 11.038938443735884 10.977149333275257 0 0 0
255 1 3.212784256932817 9.473661943292273 9.399435522091455 0 0 0
256 1 4.77806111586183 11.038937476271144 10.97714764016675 0 0 0
257 1 6.343340095619279 9.473662981889913 9.399431922731939 0 0 0
258 1 7.9086158373865585 11.038939343082985 10.977143067291168 0 0 0
259 1 9.473895865219031 9.473665939873152 9.39942800936289 0 0 0
260 1 11.039171414894987 11.03894262865969 10.97713814731794 0 0 0
261 1 12.604448941183763 9.47366915755856 9.399423439734655 0 0 0
262 1 14.169722596425517 11.03894708303473 10.977135437259935 0 0 0
263 1 15.734999086760155 9.473673228693324 9.399422746371489 0 0 0
264 1 17.300273557787673 11.038950763542728 10.977136352195208 0 0 0
412 1 4.7780538358577544 14.169491920261326 17.287946406113456 0 0 0
266 1 1.6475013659739381 14.169493592414923 10.9771541175465 0 0 0
267 1 3.2127839273688523 12.604218424706577 9.39944404083269 0 0 0
268 1 4.778060648394765 14.169493776244787 10.977152249442408 0 0 0
269 1 6.343340516791914 12.60421840133293 9.399438231505467 0 0 0
270 1 7.908617139373125 14.16949404872553 10.977145696700815 0 0 0
271 1 9.473896401587242 12.604219206231866 9.399431602880167 0 0 0
272 1 11.039172175580998 14.169496163140575 10.977140100753179 0 0 0
273 1 12.604450483245595 12.60422182680588 9.399424168230983 0 0 0
274 1 14.169724392235269 14.169498971948771 10.977137654006167 0 0 0
275 1 15.735001913660591 12.604224125776108 9.399422264164313 0 0 0
276 1 17.300276324625916 14.169500286331463 10.97713794311403 0 0 0
411 1 3.2127777186678523 12.604213300876832 15.710246505785094 0 0 0
278 1 1.6475002847335134 17.300049033916665 10.977154659490447 0 0 0
279 1 3.2127826861830875 15.73477231082262 9.399446578989087 0 0 0
280 1 4.778059860687651 17.30004832114868 10.97715284050437 0 0 0
281 1 6.343340921563881 15.734772215360127 9.399440340672486 0 0 0
282 1 7.908615769330333 17.300048665852614 10.977146899952409 0 0 0
283 1 9.473897089279708 15.734773314684578 9.399433634181246 0 0 0
284 1 11.03917191432584 17.300049989769466 10.977141723807042 0 0 0
285 1 12.60445181136263 15.734774391861727 9.39942779878314 0 0 0
286 1 14.169725454744963 17.300050689090465 10.977141120661472 0 0 0
287 1 15.73500350816253 15.734775064797065 9.399426486618939 0 0 0
288 1 17.300278410131114 17.30005028897291 10.97714090046373 0 0 0
410 1 1.6474984150635015 14.169492986519902 17.28794496592687 0 0 0
290 1 1.647502562318445 1.6472738602230836 14.132531844792005 0 0 0
401 1 6.343332105476346 9.473658167884828 15.710246065573902 0 0 0
292 1 4.778053215064402 1.6472744013201694 14.132531832964272 0 0 0
408 1 17.300267904352612 11.038944456280023 17.287948222168716 0 0 0
294 1 7.9086055743095 1.64727499519368 14.132537427862347 0 0 0
400 1 4.7780536577803305 11.038936758673225 17.28794611002564 0 0 0
296 1 11.03915779083687 1.6472762502169878 14.132544802902249 0 0 0
121 1 0.0822312208058308 12.604225337815505 3.0853460259921732 0 0 0
298 1 14.169711117981791 1.6472777146254618 14.132548943493985 0 0 0
407 1 15.734991545941455 9.473668807632476 15.710244788392833 0 0 0
300 1 17.30026684398196 1.6472786422756331 14.132551010537762 0 0 0
301 1 0.08222874977096642 3.212550659691043 12.554829003886933 0 0 0
302 1 1.6475022940058468 4.777826278954596 14.132537313101817 0 0 0
303 1 3.2127801078981593 3.2125506259680754 12.554827413770786 0 0 0
304 1 4.778054165870035 4.777826322857704 14.132536527708393 0 0 0
305 1 6.343332444356829 3.2125508001218086 12.554830384101779 0 0 0
306 1 7.9086073810982045 4.777828274501642 14.13253961434664 0 0 0
307 1 9.473885690198562 3.2125537779044877 12.554837519525426 0 0 0
308 1 11.039159973566008 4.7778317595121855 14.13254427988414 0 0 0
309 1 12.604437869295992 3.2125557858509057 12.55484466219345 0 0 0
310 1 14.169713218777938 4.777835684867901 14.132545635660666 0 0 0
311 1 15.734991632915516 3.2125583041557935 12.554848430260826 0 0 0
312 1 17.300266753928856 4.777837987964611 14.132545597056602 0 0 0
406 1 14.169714383584651 11.038942532584976 17.287948881974454 0 0 0
314 1 1.6475022082230517 7.90837990724634 14.132543746806334 0 0 0
315 1 3.212780793564287 6.343103861446883 12.55483576456002 0 0 0
316 1 4.7780560365441085 7.908379822688271 14.132542597545939 0 0 0
317 1 6.343334764526482 6.34310422468577 12.554836280831388 0 0 0
318 1 7.908610507174897 7.9083820450676034 14.132542948755212 0 0 0
319 1 9.47388806630652 6.343108012236498 12.554838174600475 0 0 0
320 1 11.039163285194423 7.908386093625075 14.132543051132108 0 0 0
321 1 12.604440782272539 6.343112455862222 12.55484064458984 0 0 0
322 1 14.169715543977858 7.908391590932855 14.132542339204742 0 0 0
323 1 15.734992381382366 6.343116691703102 12.554841184683841 0 0 0
324 1 17.300267764852507 7.908395042118296 14.132541504672437 0 0 0
325 1 0.08222497325797153 9.473658732298276 12.55484467409131 0 0 0
326 1 1.647501136834309 11.03893523779486 14.132547230365258 0 0 0
327 1 3.2127814223066182 9.473657971808443 12.554843776483338 0 0 0
328 1 4.77805783831483 11.038934049338936 14.13254676491845 0 0 0
329 1 6.343336451592774 9.473658620799881 12.5548423959661 0 0 0
330 1 7.908613004742441 11.038936535873633 14.132544696171482 0 0 0
331 1 9.473890826854689 9.473662436329887 12.554839861917825 0 0 0
332 1 11.039166011447456 11.038939930887897 14.132543362019009 0 0 0
333 1 12.604443093237938 9.473666977849655 12.55483788971499 0 0 0
334 1 14.169717460585591 11.038945227167241 14.13254283682853 0 0 0
335 1 15.734993827882548 9.473672123648319 12.55483755827725 0 0 0
336 1 17.30026913762291 11.038948639414205 14.132542554024651 0 0 0
277 1 0.08222106749411923 15.734772602067363 9.399446795117 0 0 0
338 1 1.6474998131710876 14.169491418992619 14.13254802776569 0 0 0
339 1 3.212781045019853 12.604213712487635 12.554849244139202 0 0 0
340 1 4.778057955683557 14.169491217328929 14.132548765772349 0 0 0
341 1 6.343337688045012 12.604214116002964 12.554845965459316 0 0 0
342 1 7.908613630797392 14.169491871694216 14.132545119481788 0 0 0
343 1 9.473892550103548 12.604216300807888 12.554841179382786 0 0 0
344 1 11.0391671899262 14.169494172099826 14.132542926223197 0 0 0
345 1 12.604445165915777 12.604219679066496 12.55483878032437 0 0 0
346 1 14.169719109744467 14.169497302454975 14.132543907494355 0 0 0
347 1 15.734996273455545 12.604223998510033 12.554838751397787 0 0 0
348 1 17.300271052280788 14.169499914443703 14.132545014919542 0 0 0
349 1 0.08221941840339435 15.734770668381033 12.554849892230857 0 0 0
350 1 1.6474986365362407 17.300048658809654 14.132549251169472 0 0 0
351 1 3.212779442557925 15.73477014016982 12.554850752923471 0 0 0
352 1 4.778057277614809 17.300047219724473 14.132548713444521 0 0 0
353 1 6.343337005139401 15.734769726831882 12.554847760952697 0 0 0
354 1 7.9086129110198105 17.300048094420454 14.13254595397312 0 0 0
355 1 9.473892535733716 15.734771119955663 12.55484222572375 0 0 0
356 1 11.039166088321286 17.300048490676705 14.132543276579263 0 0 0
357 1 12.604445880520638 15.734773018585797 12.554840541069074 0 0 0
358 1 14.169719165792918 17.300049629109235 14.132545095291686 0 0 0
359 1 15.73499800646398 15.734774825360546 12.554841067215795 0 0 0
360 1 17.300271979919998 17.300050507589827 14.132547042608609 0 0 0
432 1 17.30026822071666 17.30004977001146 17.287952528950978 0 0 0
362 1 1.6474989710549361 1.6472744335131868 17.28794308425454 0 0 0
431 1 15.734993451655132 15.734773967531565 15.710248711124555 0 0 0
364 1 4.77805107759053 1.647274513864196 17.287942866979648 0 0 0
430 1 14.169714040513618 17.300049898919802 17.28794887876942 0 0 0
366 1 7.908601628938499 1.64727540353542 17.287945178130435 0 0 0
429 1 12.604439905680938 15.734772520900734 15.710245705576423 0 0 0
368 1 11.039156603374035 1.6472756571300304 17.28794781181769 0 0 0
428 1 11.039160624527131 17.300049000753443 17.287947738777614 0 0 0
370 1 14.16971117065353 1.6472771002390258 17.287947408418997 0 0 0
427 1 9.473887785196242 15.734770652466796 15.710245359084919 0 0 0
372 1 17.30026561828466 1.647277125445275 17.28794645048866 0 0 0
405 1 12.604439367658369 9.473664750802167 15.710245607276951 0 0 0
374 1 1.6474984770301409 4.777825775143787 17.287945969512602 0 0 0
375 1 3.2127762244650038 3.2125493873873903 15.710239062859198 0 0 0
376 1 4.7780512876004115 4.777826427744263 17.28794490058731 0 0 0
377 1 6.343327549663655 3.21255060017181 15.71023941044944 0 0 0
378 1 7.908602780474128 4.777827978165744 17.287946120181505 0 0 0
379 1 9.47388016267292 3.212551995147565 15.710245147837375 0 0 0
380 1 11.039157307222366 4.777830573766528 17.287947138598785 0 0 0
381 1 12.604433700030993 3.2125549875478256 15.710247335711818 0 0 0
382 1 14.1697116637035 4.777833189338787 17.287946028613575 0 0 0
383 1 15.734988404929222 3.2125569571339447 15.710246609699382 0 0 0
384 1 17.300265404293743 4.777834373372646 17.287945055017012 0 0 0
404 1 11.03916127078788 11.038939620596093 17.287948209081563 0 0 0
386 1 1.6474993250072865 7.908381039995086 17.28794784368929 0 0 0
387 1 3.2127769720645984 6.3431020289434406 15.710243851375633 0 0 0
388 1 4.7780521125704905 7.908380677896211 17.287946677394384 0 0 0
389 1 6.343329530202367 6.3431039313126805 15.710243096106415 0 0 0
390 1 7.908605625684631 7.908382562430448 17.28794698513814 0 0 0
391 1 9.473882799647317 6.343105810696548 15.710245755737148 0 0 0
392 1 11.03915926913951 7.90838463463656 17.287947164093616 0 0 0
393 1 12.60443667799033 6.343110586700548 15.710245798596796 0 0 0
394 1 14.169712960634374 7.908387883885251 17.287946897055875 0 0 0
395 1 15.734990158519823 6.343114578007173 15.710244403887867 0 0 0
396 1 17.30026698903087 7.908390409970238 17.287945496180974 0 0 0
313 1 0.08222733296902977 6.343104560358427 12.554837193568842 0 0 0
398 1 1.64749890230445 11.038937234953044 17.287947002725417 0 0 0
399 1 3.2127775270893695 9.473657312127902 15.710246228374713 0 0 0
1261 1 0.08221943507058456 18.865325996369066 15.710247364027289 0 0 0
977 1 6.3433393109206415 18.86532599472425 3.0853287841173493 0 0 0
979 1 9.473894741688827 18.86532599421326 3.0853234416999644 0 0 0
981 1 12.604449396005073 18.86532599339779 3.0853181146574284 0 0 0
983 1 15.735002448460184 18.865325991343628 3.085312129511207 0 0 0
1121 1 6.343339551412599 18.86532599555923 9.399441268707056 0 0 0
1191 1 3.2127792557775847 18.865325996098964 12.554850702123021 0 0 0
1271 1 15.734993205457766 18.86532599615255 15.710248639700861 0 0 0
1195 1 9.473890836760946 18.865325995860314 12.554842508420611 0 0 0
1053 1 12.604453379270531 18.865325994555587 6.243903772365167 0 0 0
1269 1 12.604439195907151 18.86532599621588 15.710245932906972 0 0 0
1199 1 15.734998883124893 18.865325995637527 12.55484267249111 0 0 0
1189 1 0.08221805758160514 18.86532599607395 12.554850381758992 0 0 0
1119 1 3.212782306729562 18.865325995752798 9.39944652744521 0 0 0
1047 1 3.2127864667245833 18.865325995352297 6.243924268118585 0 0 0
1051 1 9.473898302028246 18.86532599490603 6.243908498830798 0 0 0
1263 1 3.212777189567097 18.865325996399513 15.710247413094246 0 0 0
907 1 9.473885442489676 18.86532599369137 -0.042285895084583296 0 0 0
1049 1 6.343342064513958 18.86532599515907 6.24391621963576 0 0 0
1127 1 15.73500609372663 18.865325995182452 9.399428578234152 0 0 0
909 1 12.60443944463837 18.865325992100416 -0.04229423927789 0 0 0
1117 1 0.08222035370660559 18.865325995734885 9.399447324292398 0 0 0
1265 1 6.343332696219613 18.865325996369116 15.710246530447552 0 0 0
1055 1 15.735007320053175 18.865325994378292 6.243899966513226 0 0 0
905 1 6.343330624593902 18.865325994313128 -0.042281432754639345 0 0 0
901 1 0.08222749531103994 18.865325994872446 -0.04225921221964895 0 0 0
1045 1 0.0822251617294848 18.865325995340978 6.243928823063591 0 0 0
1125 1 12.604451839567949 18.865325995205133 9.399430035638991 0 0 0
1267 1 9.47388667674792 18.865325996322134 15.710245019828127 0 0 0
1123 1 9.473895841783367 18.865325995451425 9.399433929999018 0 0 0
1193 1 6.343336321434964 18.865325995960063 12.554848499133175 0 0 0
1197 1 12.604445448601039 18.865325995725435 12.554841870126424 0 0 0
973 1 0.08222857074937423 18.865325995009705 3.085348474678863 0 0 0
461 1 6.343326044879271 6.34310487818809 18.86564817243413 0 0 0
434 1 1.6474972165182993 1.6472735039286717 20.44335273723226 0 0 0
455 1 15.734988195138351 3.212554859548223 18.86564605369017 0 0 0
436 1 4.778048411453892 1.647274336185028 20.44335107709771 0 0 0
860 1 11.039161697966055 17.30005040093189 36.20289559136623 0 0 0
438 1 7.9086019609255125 1.6472750467823873 20.443349419493682 0 0 0
625 1 0.08221858400551371 12.604219369420543 25.176450810482596 0 0 0