LAMMPS data file via write_data, version 2 Aug 2023, timestep = 3453, units = metal

3601 atoms
3 atom types

0.08166161494595287 37.64899038505427 xlo xhi
0.08143277429769481 37.64921922570233 ylo yhi
-15.830332759051958 53.56098475905204 zlo zhi

Masses

1 183.84
2 1.008
3 4.0026

Atoms # atomic

2209 1 18.865156886416298 12.603656029919831 15.71060877246352 0 0 0
2 1 1.6467717031445492 1.6466873265936546 1.528854292918894 0 0 0
2185 1 18.86525139912622 6.342606877707967 15.71049114817461 0 0 0
4 1 4.777165799425323 1.6466757763659177 1.5288222032698353 0 0 0
2101 1 18.86520560815277 3.21198533528118 12.55520409327457 0 0 0
6 1 7.907584455512046 1.6466333759576564 1.5287973095071412 0 0 0
109 1 0.0817401606536805 9.473055800074789 3.085848479553507 0 0 0
8 1 11.038065480961055 1.6465446778272543 1.5287823848943334 0 0 0
2041 1 18.865139318580255 6.342261883986328 9.39957103569064 0 0 0
10 1 14.168661861401569 1.6463932618173847 1.5288064533816441 0 0 0
426 1 7.908199999909105 17.30001235486383 17.288016671332443 0 0 0
12 1 17.299447020097983 1.6462214540214932 1.5288806777546475 0 0 0
2161 1 18.865252525955587 0.08143277493102374 15.710577907833585 0 0 0
14 1 1.64679318559549 4.7772096212975415 1.5288628957923813 0 0 0
15 1 3.211952759825482 3.2119508327975437 -0.04191819452710158 0 0 0
16 1 4.777150629442016 4.777179466776714 1.528831992906768 0 0 0
17 1 6.342335758934566 3.211891438961846 -0.041970441131554494 0 0 0
18 1 7.9075194059080625 4.77705495187699 1.5287547664697512 0 0 0
19 1 9.472766386007429 3.2117358070518973 -0.042049090265960196 0 0 0
20 1 11.037938728745052 4.776787736009122 1.5286563503580781 0 0 0
21 1 12.603301421897925 3.2114433553154837 -0.042141321000221686 0 0 0
22 1 14.168482374760437 4.776304785634164 1.5285829616167144 0 0 0
23 1 15.734007052280951 3.2109675338312913 -0.04220565535304492 0 0 0
24 1 17.29929078143828 4.775725388171548 1.5285649511474457 0 0 0
25 1 0.08166240273142081 6.34246649828328 -0.041917124307289645 0 0 0
26 1 1.6468491705055497 7.907766350678773 1.5288773040571417 0 0 0
27 1 3.211956352944169 6.342491067808009 -0.041912493749689916 0 0 0
28 1 4.7771183953357275 7.907727248018699 1.5288451390830013 0 0 0
29 1 6.342241228166928 6.342390279317608 -0.041997740656056264 0 0 0
30 1 7.907377907786589 7.907541802553434 1.5286987080858976 0 0 0
31 1 9.472557313589967 6.342103656685138 -0.04217552350597811 0 0 0
32 1 11.037656570442838 7.907107313133101 1.5284195721059723 0 0 0
33 1 12.602978668180512 6.341480625787564 -0.0424460006254747 0 0 0
34 1 14.168041960168194 7.906223755160164 1.5280188858303547 0 0 0
35 1 15.733648587806062 6.340333094985983 -0.04275781182120888 0 0 0
36 1 17.298831326458895 7.904994156617613 1.5276123073806398 0 0 0
37 1 0.08182967862217568 9.473056371113113 -0.041932704823371414 0 0 0
38 1 1.6469752633642631 11.03838240885668 1.5289212644548527 0 0 0
39 1 3.2119747401756493 9.473087579345984 -0.041912321057672695 0 0 0
40 1 4.777088720038384 11.038352869524115 1.528882544999206 0 0 0
41 1 6.342084546558233 9.472974636802679 -0.04202802023284608 0 0 0
42 1 7.907156164442177 11.038149770795455 1.5286760055650106 0 0 0
43 1 9.472150169440296 9.472611366337198 -0.04234715154507257 0 0 0
44 1 11.037158240655247 11.037606914998339 1.5281441807486558 0 0 0
45 1 12.60223822362264 9.471682236904728 -0.04299861223657655 0 0 0
46 1 14.167168134964747 11.036322353437711 1.526988798976267 0 0 0
47 1 15.732645735014517 9.46949994179726 -0.04408850265995015 0 0 0
48 1 17.297471311672187 11.033809789984252 1.5251374285191361 0 0 0
49 1 0.08215737012151872 12.603729198229937 -0.04192983778486654 0 0 0
50 1 1.6472035339777957 14.169089174539005 1.529011477098382 0 0 0
51 1 3.2120478913761445 12.603768788458463 -0.041891926826644214 0 0 0
52 1 4.777120002935212 14.169092007638097 1.5289488670965976 0 0 0
53 1 6.341888302813428 12.603677719626958 -0.04203247340262656 0 0 0
54 1 7.906985018209198 14.168957712981452 1.5286965862442683 0 0 0
55 1 9.47150444814413 12.60333787671842 -0.042493467028961646 0 0 0
56 1 11.036646880274162 14.16850428233147 1.5279524759148633 0 0 0
57 1 12.60073466935901 12.60229551627485 -0.043726775143255445 0 0 0
58 1 14.165809870936789 14.1669858612649 1.5257585011143906 0 0 0
59 1 15.72989727769373 12.598985379376131 -0.04691264121185288 0 0 0
60 1 17.29370104425464 14.161931040941441 1.5191633565234108 0 0 0
425 1 6.342886307357497 15.734699613305754 15.71037134288929 0 0 0
62 1 1.647408074100966 17.299902931419467 1.5290830941785725 0 0 0
63 1 3.212224588564825 15.734527258379932 -0.04186144698353826 0 0 0
64 1 4.777202399509084 17.299912543648468 1.5289911768499156 0 0 0
65 1 6.341840481460026 15.73448637407221 -0.042021329909860815 0 0 0
66 1 7.90701910439512 17.29988698155566 1.5286938976899187 0 0 0
67 1 9.471197666110323 15.734316817338062 -0.04252709978282655 0 0 0
68 1 11.036754223180925 17.299800241680256 1.5278793386744995 0 0 0
69 1 12.599876288826593 15.733808568385216 -0.04383503500660438 0 0 0
70 1 14.16630000094201 17.299491130102414 1.525612079712327 0 0 0
71 1 15.727404787168293 15.731810040418031 -0.04743952654921942 0 0 0
72 1 17.294847311779833 17.297502772657488 1.5189106732051751 0 0 0
424 1 4.777585479549152 17.300013640564284 17.288072017920314 0 0 0
74 1 1.646789720049142 1.6467020407863122 4.667434396854962 0 0 0
423 1 3.2122585193414537 15.734697408640352 15.710420336204798 0 0 0
76 1 4.777222088890866 1.6466916133263816 4.6674162615070784 0 0 0
1945 1 18.865011142254257 0.08143277521004677 6.244539194929446 0 0 0
78 1 7.907668822995617 1.6466631695467862 4.667405440333203 0 0 0
2221 1 18.865044522400936 15.734325580193808 15.710943164573251 0 0 0
80 1 11.038163555503747 1.6466104054569712 4.667410420577119 0 0 0
1801 1 18.864955765644506 0.08143277529999528 -0.04203526978098376 0 0 0
82 1 14.168762694568949 1.6465309630103167 4.667439181763977 0 0 0
2089 1 18.865201847783624 0.08143277503527457 12.555258269139308 0 0 0
84 1 17.299517428463147 1.6464490682187336 4.667493771150573 0 0 0
422 1 1.646964559935358 17.300011227921306 17.288094196014722 0 0 0
86 1 1.646803861311052 4.777248830796681 4.667438154089484 0 0 0
87 1 3.2119875341903525 3.2119476834072302 3.085821877745414 0 0 0
88 1 4.777223182681477 4.777221375557894 4.667418433846931 0 0 0
89 1 6.342388804600243 3.2119038580358295 3.0857893116281723 0 0 0
90 1 7.9076499341033175 4.777141732042767 4.66736549802436 0 0 0
91 1 9.472819585430837 3.2118019806865394 3.08575466142195 0 0 0
92 1 11.038114684714829 4.776984488793928 4.667301824233198 0 0 0
93 1 12.60332539240847 3.211615189650377 3.085739233125312 0 0 0
94 1 14.168681969540287 4.776735659186706 4.6672438800781135 0 0 0
95 1 15.73399359217893 3.2113570887990006 3.0857593959299865 0 0 0
96 1 17.299441925768225 4.776463521973711 4.667207298233882 0 0 0
5 1 6.342367830685366 0.08143277531497972 -0.0419609875319006 0 0 0
98 1 1.6468388760046833 7.907821268045457 4.667447391281342 0 0 0
99 1 3.2119980094715763 6.342485541371531 3.0858382641840096 0 0 0
100 1 4.777232133587735 7.9077880927991515 4.667422238552803 0 0 0
101 1 6.3423559121347735 6.342407646766661 3.0857770127430437 0 0 0
102 1 7.907618562457453 7.907673924998261 4.667305706229214 0 0 0
103 1 9.472725714979887 6.342211958670955 3.0856522347811284 0 0 0
104 1 11.03802551740759 7.907425933319898 4.667091347990955 0 0 0
105 1 12.60315390378937 6.341831634294423 3.085486996102086 0 0 0
106 1 14.168513658267257 7.906976152641599 4.666788203749515 0 0 0
107 1 15.733768837263899 6.341253350618223 3.0853066116346137 0 0 0
108 1 17.299239947322846 7.906371125922372 4.666463938978473 0 0 0
420 1 17.29982989613822 14.169147334000266 17.28829457177441 0 0 0
110 1 1.6469182524841037 11.038443738370303 4.667477363343082 0 0 0
111 1 3.2120330526467464 9.473069984298023 3.0858684725005903 0 0 0
112 1 4.777266720365913 11.038422717461053 4.667436403115286 0 0 0
113 1 6.342305683850425 9.472978353866731 3.085774372264705 0 0 0
114 1 7.907602128287953 11.038306398341954 4.667239453280069 0 0 0
115 1 9.472568573303597 9.472715718930464 3.085521148255616 0 0 0
116 1 11.037929787520133 11.03800646597423 4.666802241961813 0 0 0
117 1 12.602854483896543 9.472154199317146 3.085033342792149 0 0 0
118 1 14.168266058064264 11.037341648249226 4.66602219499052 0 0 0
119 1 15.733284725978375 9.471121840993971 3.084288239267208 0 0 0
120 1 17.29874060172766 11.035943481173353 4.665019653747105 0 0 0
419 1 15.734446412875306 12.603751927215324 15.710558741437746 0 0 0
122 1 1.647026675594045 14.169146917728302 4.667522870732151 0 0 0
123 1 3.212120159563029 12.603735322313542 3.085927522767204 0 0 0
124 1 4.777342596363359 14.169147643222043 4.667459285673464 0 0 0
125 1 6.342279422105461 12.603668690847478 3.085794535314856 0 0 0
126 1 7.907666066709903 14.169083688572536 4.667173506657452 0 0 0
127 1 9.472406224778135 12.603414473770911 3.0853983137454897 0 0 0
128 1 11.037964968956253 14.168850356114675 4.666488080150658 0 0 0
129 1 12.602453539298914 12.602746637802586 3.084444880402911 0 0 0
130 1 14.167969871826944 14.168033298905891 4.665110984776628 0 0 0
131 1 15.73243793237283 12.601185011688099 3.0824820700358244 0 0 0
132 1 17.297487575235152 14.165188870852143 4.663014863989292 0 0 0
418 1 14.169276087468596 14.169280537852902 17.28808907456701 0 0 0
134 1 1.6471092149602706 17.299923019526364 4.6675596736430345 0 0 0
135 1 3.212240091903212 15.734502520524662 3.0859925340441365 0 0 0
136 1 4.777419382858995 17.29993020864557 4.6674793994283705 0 0 0
137 1 6.342333252889487 15.73448768214866 3.085818448418082 0 0 0
138 1 7.9078024403350184 17.299925140081612 4.667130953869473 0 0 0
139 1 9.472452089805518 15.734379286267876 3.085314939126698 0 0 0
140 1 11.038357670602307 17.2999100405179 4.666267574475961 0 0 0
141 1 12.602460855493852 15.73399111951432 3.084004806536447 0 0 0
142 1 14.169036436343045 17.299855342694116 4.66438717846046 0 0 0
143 1 15.731221477756783 15.73228836524358 3.080671417090935 0 0 0
144 1 17.29831692007476 17.29829910693122 4.660912184374719 0 0 0
2113 1 18.86520950774166 6.342492201641465 12.555062713981831 0 0 0
146 1 1.6468050968503638 1.6467275498978244 7.822339162537326 0 0 0
417 1 12.603948205935575 12.603950696776545 15.710387345101411 0 0 0
148 1 4.777297946881665 1.646719427020392 7.822332938920269 0 0 0
61 1 0.08267305735016302 15.734492002311558 -0.04191123241292366 0 0 0
150 1 7.907801600776928 1.6467034896536863 7.822325041856976 0 0 0
1993 1 18.863736033601274 12.599267685188732 6.242485521315674 0 0 0
152 1 11.038343892260261 1.6466755713599601 7.822319934552083 0 0 0
416 1 11.038741734003521 14.169350917820132 17.288034650843002 0 0 0
154 1 14.168960490460048 1.6466369352887011 7.822319924092788 0 0 0
1969 1 18.864968062160518 6.3417227643113145 6.243940322767168 0 0 0
156 1 17.29967892869574 1.6466058433572253 7.822320485760917 0 0 0
415 1 9.473421838807079 12.60403333720993 15.710384393017584 0 0 0
158 1 1.6468102418943167 4.777323276375131 7.822325955611883 0 0 0
159 1 3.2120316407578673 3.211992096933174 6.244469926155173 0 0 0
160 1 4.7773091130702 4.777302288327057 7.822317454523528 0 0 0
161 1 6.342494674259338 3.2119631566680567 6.244450204756129 0 0 0
162 1 7.9078097976140995 4.777257590921488 7.822278927586387 0 0 0
163 1 9.472980360448988 3.2119058449300244 6.244427346520588 0 0 0
164 1 11.038337035053715 4.777174524404181 7.822225702456638 0 0 0
165 1 12.603529687894719 3.2118096396259515 6.244410492268878 0 0 0
166 1 14.168936586928474 4.777044110875108 7.822168702227085 0 0 0
167 1 15.734195710855014 3.2116897194251233 6.244403813908295 0 0 0
168 1 17.299660578676665 4.776924169078002 7.8221117399798 0 0 0
151 1 9.472988306104618 0.08143277522690084 6.244464087623407 0 0 0
170 1 1.6468258337640023 7.907940006491917 7.8223001859145604 0 0 0
171 1 3.2120466505113057 6.342569282029441 6.244467334937781 0 0 0
172 1 4.777335689626696 7.9079136359251345 7.822287170859873 0 0 0
173 1 6.342503385111936 6.3425203432491655 6.2444211177532924 0 0 0
174 1 7.907832835570049 7.907852319651515 7.822196439837306 0 0 0
175 1 9.472968871769131 6.342413763975014 6.244326570314439 0 0 0
176 1 11.038332665201146 7.907716993147383 7.82204166940744 0 0 0
177 1 12.603480520946725 6.342215725320236 6.244199221311355 0 0 0
178 1 14.168870678142438 7.9074486035846645 7.821861856448491 0 0 0
179 1 15.734114466519443 6.341926557203545 6.244060894099994 0 0 0
180 1 17.299569456264617 7.907082345822787 7.821701768189363 0 0 0
2125 1 18.865177537324314 9.472891294524782 12.554954991934311 0 0 0
182 1 1.6468561089484735 11.038588169791037 7.822267223521218 0 0 0
183 1 3.2120833981199453 9.473182688246794 6.244463398750611 0 0 0
184 1 4.777388858505007 11.03856810927137 7.822245223915929 0 0 0
185 1 6.342528735024596 9.473132680336535 6.244381727121529 0 0 0
186 1 7.907892421573335 11.038515989982272 7.8220814718205345 0 0 0
187 1 9.47296621558732 9.472998073335926 6.244174852186342 0 0 0
188 1 11.038346889505913 11.038348360134798 7.821785423507623 0 0 0
189 1 12.603414577650835 9.47270088034465 6.243836033543228 0 0 0
190 1 14.168714347295248 11.03788535418078 7.821455356444754 0 0 0
191 1 15.73391935760151 9.472103419516257 6.2434316707600805 0 0 0
192 1 17.299059630351834 11.036654895339632 7.821450112807825 0 0 0
1873 1 18.86491627367689 0.0814327752708249 3.0859633309009458 0 0 0
194 1 1.6468971998766555 14.169270476283517 7.822237821375763 0 0 0
195 1 3.212147249668265 12.60385343162511 6.244464178285106 0 0 0
196 1 4.777467662654907 14.169264868792686 7.822201326203604 0 0 0
197 1 6.342597661174323 12.60382505902057 6.244331693744509 0 0 0
198 1 7.908019201864102 14.16925130398867 7.821947524897054 0 0 0
199 1 9.473027117869279 12.603711914714506 6.2439838216801515 0 0 0
200 1 11.038472802433958 14.169150658372649 7.821472014586672 0 0 0
201 1 12.603354973118227 12.603350619413963 6.243368056452447 0 0 0
202 1 14.16835025604073 14.168539109095107 7.82109357999066 0 0 0
203 1 15.733477737214685 12.602299303847943 6.242616536178921 0 0 0
204 1 17.296452489476565 14.16497298962574 7.823414302380471 0 0 0
2137 1 18.865011301259777 12.603154660298825 12.555200509919592 0 0 0
206 1 1.6469332201503681 17.29997220564691 7.822221596059679 0 0 0
207 1 3.2122189041405322 15.734577103961474 6.244469247957923 0 0 0
208 1 4.77753816525853 17.299973310245587 7.822176494647238 0 0 0
209 1 6.342707249619544 15.734577825698175 6.244287648839792 0 0 0
210 1 7.9081693535160165 17.299980962674837 7.821859971313449 0 0 0
211 1 9.473230194161227 15.734555940168843 6.243789783836929 0 0 0
212 1 11.038835256540311 17.299990263628732 7.821221301817144 0 0 0
213 1 12.60362489224873 15.734411541957014 6.242819199461599 0 0 0
214 1 14.16931349412382 17.299973052375726 7.820343658760656 0 0 0
215 1 15.732659701067261 15.733238341010434 6.241756921138147 0 0 0
216 1 17.298497504292023 17.299355511857634 7.820555274655888 0 0 0
1849 1 18.862382841095123 12.594855834818267 -0.04856090796571416 0 0 0
218 1 1.6468260690254801 1.646749789757913 10.977664917364244 0 0 0
1837 1 18.864228957070075 9.467550663251975 -0.044532854394311955 0 0 0
220 1 4.777372291462185 1.6467440710441383 10.97766647868774 0 0 0
2173 1 18.865253636809292 3.2120329963393295 15.710551604353459 0 0 0
222 1 7.9079251064672915 1.6467331276556971 10.97765878256537 0 0 0
1813 1 18.86491040019152 3.210584924227123 -0.042204663952538676 0 0 0
224 1 11.038503019145715 1.6467159298804621 10.977647519375425 0 0 0
1909 1 18.86433781553732 9.469978522624219 3.083599409996133 0 0 0
226 1 14.169130788346438 1.6466955348166334 10.977629469886459 0 0 0
1897 1 18.86473704203853 6.340764790495839 3.0852062720389855 0 0 0
228 1 17.299814042861954 1.6466885074693118 10.977603168412475 0 0 0
414 1 7.908171217053983 14.169377615550168 17.288063519083487 0 0 0
230 1 1.6468284713918597 4.777388052208507 10.977634401310247 0 0 0
231 1 3.2120774005664092 3.2120419075532056 9.39997820664938 0 0 0
232 1 4.777382058289571 4.77737100717857 10.9776369348493 0 0 0
233 1 6.342603833796682 3.2120240381792784 9.399967761950846 0 0 0
234 1 7.907934945023868 4.777341807847221 10.977613799986981 0 0 0
235 1 9.473144370345905 3.211991323800688 9.399946364891754 0 0 0
236 1 11.038501931890579 4.777286532107704 10.977577102814758 0 0 0
237 1 12.603727473448425 3.211938168180916 9.399921449181738 0 0 0
238 1 14.169115057257374 4.7772048704924055 10.977539744215978 0 0 0
239 1 15.734388675071996 3.2118807800744333 9.399894597329551 0 0 0
240 1 17.299816617731455 4.777177212598925 10.977473572516104 0 0 0
413 1 6.342842284178267 12.60405655491447 15.710435531843759 0 0 0
242 1 1.6468351623751185 7.908034379558885 10.977582138647328 0 0 0
243 1 3.21209130106685 6.342664687188539 9.399947944423163 0 0 0
244 1 4.77740763046148 7.9080136446297224 10.977583742140165 0 0 0
245 1 6.342623858363632 6.34263350908803 9.399919415773548 0 0 0
246 1 7.907961530464568 7.907973111073179 10.977529026777516 0 0 0
247 1 9.473155469846649 6.342571754784536 9.399852550646862 0 0 0
248 1 11.038495277098463 7.907871480538855 10.977452799972136 0 0 0
249 1 12.603710733566116 6.342448590749072 9.399770083466347 0 0 0
250 1 14.169040324584328 7.907658050517244 10.977412985756013 0 0 0
251 1 15.73434768689983 6.342271991450544 9.399696335936342 0 0 0
252 1 17.299789048838846 7.907576897940595 10.977270230311822 0 0 0
1861 1 18.854505619854432 15.722684873991822 -0.059640229931079244 0 0 0
254 1 1.6468532572757888 11.038689809448078 10.977515197525813 0 0 0
255 1 3.2121189286184837 9.47330832259932 9.399903222312638 0 0 0
256 1 4.777455373020375 11.038676323417755 10.977511223933252 0 0 0
257 1 6.342668762755439 9.473277914506689 9.399846051140381 0 0 0
258 1 7.90801792008811 11.03864199130454 10.97741161576596 0 0 0
259 1 9.473186472972609 9.47319836891737 9.399707218787615 0 0 0
260 1 11.038484160448679 11.038503249765338 10.977298149269645 0 0 0
261 1 12.603664854999801 9.472983309946382 9.399548966075317 0 0 0
262 1 14.168815445915516 11.03807235446995 10.97737951901234 0 0 0
263 1 15.734141536213228 9.472480313552767 9.399514796588505 0 0 0
264 1 17.29958560286091 11.037765222630414 10.977254660229482 0 0 0
412 1 4.777566687026678 14.169381508528973 17.288105196350095 0 0 0
266 1 1.646885663453404 14.169346568409813 10.977456346479212 0 0 0
267 1 3.2121657436588027 12.603974235426582 9.399849937465376 0 0 0
268 1 4.777524562759467 14.169344900605598 10.977438438834438 0 0 0
269 1 6.342749938589362 12.60396237884312 9.399752617051913 0 0 0
270 1 7.908137164128547 14.16934233602352 10.977270671492965 0 0 0
271 1 9.47326950498216 12.60390402364931 9.399521336219658 0 0 0
272 1 11.038653989529127 14.169286309250046 10.977028283881957 0 0 0
273 1 12.603562316723457 12.603606663687119 9.399323565368798 0 0 0
274 1 14.168899215222972 14.168972524956944 10.977005747487903 0 0 0
275 1 15.733375257690115 12.602423178434048 9.399846641961416 0 0 0
276 1 17.29863485296254 14.167651149494933 10.978306417063074 0 0 0
411 1 3.212234004056713 12.604059213593702 15.710467159802322 0 0 0
278 1 1.646908777612098 17.300000495910766 10.977423311665406 0 0 0
279 1 3.2122192554097118 15.73465077673746 9.39981093817318 0 0 0
280 1 4.777575694125029 17.300001917603776 10.977395103795518 0 0 0
281 1 6.342856498894727 15.734655638698918 9.399670885526442 0 0 0
282 1 7.908236215481866 17.300006225311964 10.977183987879242 0 0 0
283 1 9.47347275928433 15.734657552903277 9.399321446777696 0 0 0
284 1 11.038840660848262 17.299999645607947 10.976851170717286 0 0 0
285 1 12.603934607150295 15.734588902099883 9.39885849929838 0 0 0
286 1 14.169270238675455 17.299933931912623 10.976632540622939 0 0 0
287 1 15.733802061560336 15.734036009158306 9.398901487426137 0 0 0
288 1 17.29942088047802 17.299694592345304 10.977249207287109 0 0 0
410 1 1.6469546515061084 14.169376742789902 17.288122423698443 0 0 0
290 1 1.6468595620849833 1.6467611361847603 14.13297775200347 0 0 0
83 1 15.734058990728444 0.08143277527197768 3.085877986457565 0 0 0
292 1 4.777436858044843 1.6467570791918547 14.132984934561707 0 0 0
408 1 17.299892957966804 11.03851359560079 17.28820356981741 0 0 0
294 1 7.9080192055765925 1.6467500911157695 14.132981147914371 0 0 0
2149 1 18.864479407790533 15.733551709142466 12.556315166069707 0 0 0
296 1 11.03861864899295 1.6467372294247908 14.13297006058726 0 0 0
121 1 0.081945368947872 12.60369464383317 3.085910939572683 0 0 0
298 1 14.169248272924767 1.6467273046011635 14.132947521003452 0 0 0
407 1 15.734548171483313 9.47317428820951 15.710499637387105 0 0 0
300 1 17.29990089441601 1.6467245719376244 14.132918671571987 0 0 0
369 1 12.603972643805227 0.08143277495004497 15.71062269296057 0 0 0
302 1 1.6468618139504696 4.777418110734291 14.13294630768137 0 0 0
303 1 3.2121253681435626 3.2120775292778485 12.555314868865686 0 0 0
304 1 4.777443631558654 4.777408312258498 14.132953758961483 0 0 0
305 1 6.3426929605312425 3.212064502548753 12.555312407751222 0 0 0
306 1 7.908024540091186 4.777386724086259 14.132944590965279 0 0 0
307 1 9.473269038310315 3.2120407234771196 12.555297918560958 0 0 0
308 1 11.038612412344813 4.777344614584573 14.132929794705822 0 0 0
309 1 12.603872094349725 3.212005478660916 12.555277634972335 0 0 0
310 1 14.169239598173977 4.77730708384334 14.132896647839729 0 0 0
311 1 15.734525579602725 3.211985113009473 12.55524047293713 0 0 0
312 1 17.29989948562756 4.777291928165216 14.132852884904313 0 0 0
406 1 14.169254946659937 11.038582564830104 17.288185188441744 0 0 0
314 1 1.6468729203686128 7.9080757403852555 14.132890808765818 0 0 0
315 1 3.2121353608192305 6.3427263341099 12.55527183592857 0 0 0
316 1 4.777462100791977 7.908064441005694 14.13289666802584 0 0 0
317 1 6.342708326300945 6.342704746724181 12.555260828324062 0 0 0
318 1 7.908038454842013 7.9080331323493525 14.132877934753104 0 0 0
319 1 9.473272993149818 6.342657010229635 12.555228424479685 0 0 0
320 1 11.038598027239361 7.90795648686788 14.132859855389954 0 0 0
321 1 12.603847600646963 6.342563476388351 12.555199937038877 0 0 0
322 1 14.169198584748907 7.907856317926392 14.132835857234145 0 0 0
323 1 15.734508894249021 6.342500684588587 12.555134463975003 0 0 0
324 1 17.299876709517566 7.907810165558751 14.132771625066862 0 0 0
205 1 0.08171291660012732 15.734576790771788 6.244399378058001 0 0 0
326 1 1.646895728837872 11.038728214427255 14.132826508242191 0 0 0
327 1 3.2121588997497033 9.47338349410928 12.555208354551441 0 0 0
328 1 4.777501375662028 11.038725051810216 14.13282325077193 0 0 0
329 1 6.342743435232975 9.473362043848526 12.555181718387002 0 0 0
330 1 7.908086630972214 11.038704055214241 14.13277454525884 0 0 0
331 1 9.473286230040344 9.473296986324842 12.555125842035826 0 0 0
332 1 11.038614052089471 11.038620696512638 14.132739891979458 0 0 0
333 1 12.60378374126713 9.473121314496597 12.555113173173384 0 0 0
334 1 14.169086833023316 11.038399259660007 14.132833136377151 0 0 0
335 1 15.734410293030395 9.472935423551501 12.555070215365115 0 0 0
336 1 17.29978267127344 11.03827158526717 14.13280335367461 0 0 0
2197 1 18.86522807357566 9.473137458943382 15.710468888217239 0 0 0
338 1 1.6469196605800007 14.169373356549027 14.132768444692896 0 0 0
339 1 3.212198831848083 12.60404007796415 12.555139979467944 0 0 0
340 1 4.777549495910816 14.16937720716766 14.132753271104317 0 0 0
341 1 6.342813134392667 12.60403450730367 12.55508272988026 0 0 0
342 1 7.90816203480844 14.169371809873304 14.132664125870267 0 0 0
343 1 9.473373953370507 12.603998705758174 12.554962115392447 0 0 0
344 1 11.038710964052358 14.169332175549547 14.13256614702603 0 0 0
345 1 12.603808868211699 12.603833640028546 12.554918996932974 0 0 0
346 1 14.169160467847636 14.169189032102821 14.132617900402881 0 0 0
347 1 15.734079172498822 12.603309180111816 12.55529403046282 0 0 0
348 1 17.2995408740962 14.168778619993354 14.133136576868095 0 0 0
367 1 9.473355843758458 0.08143277495747725 15.710636924855654 0 0 0
350 1 1.646935939841341 17.3000096351429 14.132734323071487 0 0 0
351 1 3.2122374141085412 15.73468742339294 12.555087750808086 0 0 0
352 1 4.777582472844546 17.30001186161943 14.132710410983798 0 0 0
353 1 6.342886342219725 15.734690856527259 12.555001771118127 0 0 0
354 1 7.908217850874098 17.30001300099104 14.132595373490531 0 0 0
355 1 9.47349465890298 15.734685165450433 12.55481437800658 0 0 0
356 1 11.038795581471808 17.30000378155722 14.13245342032258 0 0 0
357 1 12.603993126001225 15.734626985874709 12.554655688815489 0 0 0
358 1 14.169269195687049 17.29995753851743 14.132457819271753 0 0 0
359 1 15.734310800222996 15.734407250910257 12.554861069532036 0 0 0
360 1 17.29967747304066 17.299831145933208 14.132914891520706 0 0 0
432 1 17.29984673922356 17.2999277420369 17.28825828610927 0 0 0
362 1 1.64689967915543 1.64676331315504 17.288286133490185 0 0 0
431 1 15.73449941810995 15.734545810653616 15.710419520054407 0 0 0
364 1 4.777492146450264 1.6467627119930284 17.28829250540367 0 0 0
430 1 14.169310734006704 17.299979626934377 17.288015552877596 0 0 0
366 1 7.908087919546216 1.6467575094593923 17.288292192233772 0 0 0
429 1 12.60401738862167 15.734651590860457 15.710253612948746 0 0 0
368 1 11.038695969333443 1.6467500649011821 17.288283289893513 0 0 0
428 1 11.038777855191851 17.30000449234755 17.287969246196198 0 0 0
370 1 14.169320935218702 1.646743113298953 17.288266409128397 0 0 0
427 1 9.473483639647363 15.734691698497523 15.710286256813436 0 0 0
372 1 17.29995416392123 1.6467407950040205 17.288246782380245 0 0 0
405 1 12.603920478068007 9.473259043298766 15.7105141272435 0 0 0
374 1 1.6469042290087272 4.7774235112731525 17.28826169423237 0 0 0
375 1 3.212173998120829 3.2120914237019815 15.710625365700722 0 0 0
376 1 4.777495825109161 4.777421248167639 17.288267968419635 0 0 0
377 1 6.3427617812759065 3.212084368580044 15.710627277313874 0 0 0
378 1 7.908090059972805 4.777407418639157 17.288266439732702 0 0 0
379 1 9.473355604764565 3.212066698717868 15.710621534209304 0 0 0
380 1 11.038693209959284 4.777382653601184 17.288259172527592 0 0 0
381 1 12.603970848182955 3.212046520472432 15.710604968569301 0 0 0
382 1 14.169315340493654 4.777360413747585 17.288240761962797 0 0 0
383 1 15.734607156265007 3.2120347765474433 15.710577520361937 0 0 0
384 1 17.299951813040742 4.777349816416779 17.288216116438868 0 0 0
404 1 11.038698965789722 11.03868009725466 17.288134129125094 0 0 0
386 1 1.6469164934608274 7.908080309516024 17.28822026548924 0 0 0
387 1 3.2121824086698525 6.3427503199571 15.710585252809247 0 0 0
388 1 4.777510026063159 7.908080126426603 17.288220363243713 0 0 0
389 1 6.342770831685635 6.3427369809588585 15.710584712353935 0 0 0
390 1 7.9081003746972 7.908062354596345 17.288214778052044 0 0 0
391 1 9.4733557258911 6.342702229712367 15.710576189327607 0 0 0
392 1 11.038684257379783 7.90801707211559 17.288215572178547 0 0 0
393 1 12.603955595203297 6.3426516425911235 15.7105619867409 0 0 0
394 1 14.16929458968231 7.907967413296541 17.28820631897449 0 0 0
395 1 15.734594469980449 6.34261731441639 15.710527461493752 0 0 0
396 1 17.299935467081728 7.90793707891742 17.288184460674827 0 0 0
1921 1 18.86282123250406 12.597538015502822 3.079603757455827 0 0 0
398 1 1.6469365913869642 11.038733160522822 17.28816873101084 0 0 0
399 1 3.212203829157933 9.473407591756198 15.710528317644545 0 0 0
400 1 4.7775362566685775 11.038735816581926 17.288160456971216 0 0 0
401 1 6.342797333857384 9.473397415531142 15.710515730634574 0 0 0
402 1 7.90812989792201 11.038724519227884 17.288139572914204 0 0 0
403 1 9.473369196621979 9.473356832845866 15.710498468702875 0 0 0
371 1 15.734609305991995 0.08143277494074136 15.710599553012992 0 0 0
1981 1 18.86482444691829 9.47139948302966 6.243065014556975 0 0 0
365 1 6.3427594596685015 0.08143277496279921 15.710643010642174 0 0 0
299 1 15.734526995787347 0.08143277504308344 12.555283961654034 0 0 0
363 1 3.2121716174143407 0.08143277496017434 15.710640585148887 0 0 0
1957 1 18.86500233226401 3.211618377153002 6.244405125284305 0 0 0
297 1 12.603876374230415 0.0814327750514181 12.555308400458879 0 0 0
133 1 0.08216928097655417 15.734462630527311 3.085982426200833 0 0 0
295 1 9.473265765084713 0.0814327750610449 12.555322600738396 0 0 0
293 1 6.342687877626458 0.08143277506226809 12.555330176492822 0 0 0
2065 1 18.864796813054962 12.602080180326228 9.399307124900156 0 0 0
291 1 3.212122877502023 0.08143277506336463 12.555330015999603 0 0 0
225 1 12.603732409458766 0.08143277514224678 9.399974757534245 0 0 0
227 1 15.734395369371779 0.08143277513276326 9.399965590238368 0 0 0
1885 1 18.864878627733432 3.211151433139997 3.0858154060154734 0 0 0
223 1 9.473141724917644 0.08143277515207939 9.399978360812726 0 0 0
2029 1 18.865126474452822 3.211874708863198 9.399859163039745 0 0 0
221 1 6.34259749086566 0.08143277515370073 9.399983865577264 0 0 0
2053 1 18.865121983415985 9.472447429093425 9.399187516420078 0 0 0
9 1 12.60339147322523 0.08143277531142751 -0.04204684647374362 0 0 0
193 1 0.08166669452712262 12.603858240491865 6.244415946127827 0 0 0
2017 1 18.86512115103656 0.0814327751302617 9.399955592659413 0 0 0
149 1 6.34249444712689 0.08143277523279698 6.2444610095734046 0 0 0
11 1 15.734100904963393 0.08143277530634946 -0.04206389236036842 0 0 0
77 1 6.342399322107409 0.08143277528833642 3.085795879738967 0 0 0
1933 1 18.852939160428264 15.7194263633501 3.066939874652357 0 0 0
2005 1 18.854570802723895 15.721368257467644 6.250321288323069 0 0 0
2077 1 18.862211808775978 15.730595521464954 9.402928538258774 0 0 0
1825 1 18.864733277662197 6.339399587583216 -0.042880187639891015 0 0 0
79 1 9.472850297829998 0.08143277529172366 3.085793874046277 0 0 0
147 1 3.2120273756828404 0.08143277522648162 6.244469481629686 0 0 0
219 1 3.2120741309998144 0.08143277515384995 9.39998817664779 0 0 0
153 1 12.60354791136717 0.08143277522013648 6.244477560195115 0 0 0
75 1 3.2119844276108775 0.08143277528058235 3.085815852024319 0 0 0
155 1 15.734217871474746 0.08143277521315895 6.24450606924114 0 0 0
81 1 12.603380282638154 0.08143277528381532 3.0858172148727423 0 0 0