LAMMPS data file via write_data, version 2 Aug 2023, timestep = 2279, units = metal

3601 atoms
3 atom types

0.08199380632949717 37.6486581936705 xlo xhi
0.08199748739893128 37.64865451260138 ylo yhi
-15.833023570430294 53.56367557043035 zlo zhi

Masses

1 183.84
2 1.008
3 4.0026

Atoms # atomic

1121 1 6.343153804846568 18.86504399753153 9.39988786789295 0 0 0
2 1 1.6472741467301535 1.6469686495426676 1.5288973411613005 0 0 0
907 1 9.473669553707312 18.864991079832553 -0.04187156377016671 0 0 0
4 1 4.777826591301255 1.6469641811556905 1.528912585833854 0 0 0
977 1 6.343115811682077 18.86499703525832 3.085771646438165 0 0 0
6 1 7.908396052293276 1.6469465165826127 1.528927173593297 0 0 0
1269 1 12.604234135352552 18.865090868138168 15.71074277316808 0 0 0
8 1 11.038958774801104 1.6469336208029175 1.5289249804184522 0 0 0
1049 1 6.343120991519257 18.865019172908717 6.244366226721218 0 0 0
10 1 14.169504743220147 1.6469228650774332 1.528907667655468 0 0 0
426 1 7.908371640482941 17.299833146834594 17.28842141101218 0 0 0
12 1 17.300055365052625 1.6469020250701056 1.5288767846121383 0 0 0
905 1 6.34309459675838 18.864988512392312 -0.04184415053637032 0 0 0
14 1 1.6472734046934974 4.777521255381981 1.52892955490877 0 0 0
15 1 3.212556322284543 3.212251011450061 -0.04176463837921535 0 0 0
16 1 4.777847127131236 4.777524261577286 1.5289349755862742 0 0 0
17 1 6.3431277207707355 3.212241773200052 -0.04174069525269408 0 0 0
18 1 7.9084150876377715 4.7775147019838435 1.5289511902869553 0 0 0
19 1 9.473687727363178 3.212234166056264 -0.04172600679819724 0 0 0
20 1 11.038967852564404 4.777498800030092 1.5289474505654368 0 0 0
21 1 12.604231280140466 3.2122159987126273 -0.04175069408334748 0 0 0
22 1 14.1695109515848 4.777481069009626 1.5288988626732694 0 0 0
23 1 15.73477000214903 3.2121855356147266 -0.04179408747239202 0 0 0
24 1 17.30006124949436 4.777452447917331 1.5288602246518577 0 0 0
1051 1 9.473686178796287 18.865015340265884 6.244368842413252 0 0 0
26 1 1.6472740272575452 7.908075994298555 1.5289489098213374 0 0 0
27 1 3.212563719422447 6.342802998649341 -0.0417352710457432 0 0 0
28 1 4.777846355883623 7.908075921672092 1.5289514997647056 0 0 0
29 1 6.3431356436461925 6.34280318940158 -0.041714051655940595 0 0 0
30 1 7.908405429067237 7.9080757571728055 1.5289641898687467 0 0 0
31 1 9.473683085855942 6.342798965863918 -0.0417147983981367 0 0 0
32 1 11.038956347888918 7.908067208051559 1.52894484248016 0 0 0
33 1 12.6042253460178 6.342765662993075 -0.041753573144003624 0 0 0
34 1 14.169511769892567 7.908032409083381 1.5288928326549003 0 0 0
35 1 15.734760964256145 6.342738159201191 -0.04181053838399559 0 0 0
36 1 17.300059681905573 7.908015210760116 1.5288570590973403 0 0 0
1125 1 12.604262972036944 18.865032991619056 9.399907165666791 0 0 0
38 1 1.6472751006262365 11.038628527913762 1.5289365867535298 0 0 0
39 1 3.2125685853671135 9.473346741772364 -0.041719017708807996 0 0 0
40 1 4.777836299273766 11.038630206830252 1.5289465132833164 0 0 0
41 1 6.343126233744992 9.473345905504479 -0.04171625339848042 0 0 0
42 1 7.908402290457575 11.03863005771982 1.5289428643486873 0 0 0
43 1 9.473667083079695 9.473334434266729 -0.04174625207246347 0 0 0
44 1 11.038962266426152 11.038612795108586 1.5288992266715336 0 0 0
45 1 12.604221273105685 9.473308980785987 -0.04178454091423993 0 0 0
46 1 14.169507928954046 11.03858117559675 1.5288933993390381 0 0 0
47 1 15.734776472931985 9.473306440211667 -0.041803275925848454 0 0 0
48 1 17.30004418737867 11.038557769827332 1.5288894450452182 0 0 0
1123 1 9.47370374404197 18.865037681838732 9.399888924908701 0 0 0
50 1 1.6472743922205697 14.16917127454352 1.5289086044778304 0 0 0
51 1 3.212563277440423 12.603883070480384 -0.04175198696792863 0 0 0
52 1 4.777843175309684 14.169173918781663 1.5289037689782152 0 0 0
53 1 6.3431104006569345 12.603892919839218 -0.0417585016400664 0 0 0
54 1 7.908401115711374 14.169171816737272 1.5288726535122554 0 0 0
55 1 9.473677885864713 12.603882418316664 -0.0418040247726831 0 0 0
56 1 11.038939909320742 14.1691571484565 1.5288719599836187 0 0 0
57 1 12.60422929405227 12.603863106892936 -0.04178870845331272 0 0 0
58 1 14.169492140734903 14.169137603298259 1.5289073733322645 0 0 0
59 1 15.734782389916706 12.603846730757455 -0.041789518631194594 0 0 0
60 1 17.30003155235413 14.169067442474722 1.5289100961401547 0 0 0
425 1 6.343101881099835 15.734543109711106 15.710726582275687 0 0 0
62 1 1.6472750915627574 17.299714084066007 1.5288720046968902 0 0 0
63 1 3.212555227364191 15.73442504888404 -0.04179650599878397 0 0 0
64 1 4.777828920648006 17.299718411288946 1.5288679849198104 0 0 0
65 1 6.343097938639994 15.73442559332768 -0.04181072276062493 0 0 0
66 1 7.908395311025419 17.29971879779581 1.5288335510467974 0 0 0
67 1 9.473671624609297 15.7344240057007 -0.04183357758066908 0 0 0
68 1 11.038933828127442 17.299706479421506 1.5288530707848864 0 0 0
69 1 12.604217254257161 15.734415087684212 -0.04179425275954959 0 0 0
70 1 14.169469231779496 17.299674356219295 1.5288779678412627 0 0 0
71 1 15.734756373111846 15.734369184218721 -0.04183487806167301 0 0 0
72 1 17.299903199347476 17.29951595910536 1.5289510886925979 0 0 0
424 1 4.777826815688625 17.299824048660568 17.288410233732495 0 0 0
74 1 1.6472742166691117 1.6469702896090614 4.667391100457132 0 0 0
423 1 3.212557554145698 15.73452543091708 15.710710213623761 0 0 0
76 1 4.777838197075161 1.646971009702848 4.667393049111893 0 0 0
1861 1 18.865277507581528 15.734165305669833 -0.04183825479106549 0 0 0
78 1 7.908399480293503 1.6469539798731647 4.667406140331296 0 0 0
313 1 0.08199792728437491 6.342844676810294 12.555354868927086 0 0 0
80 1 11.038966292498786 1.64694009931722 4.667418282523849 0 0 0
373 1 0.08200128474035231 3.2123214913970863 15.710777544829027 0 0 0
82 1 14.16951803376879 1.646931482750718 4.667405652129545 0 0 0
385 1 0.08200406188450372 6.342870181634597 15.710776505717739 0 0 0
84 1 17.300064406275258 1.646924080508994 4.667388894714736 0 0 0
422 1 1.6472734057042955 17.299828104854576 17.288415404820228 0 0 0
86 1 1.6472740944038733 4.777539423243526 4.667411377317133 0 0 0
87 1 3.212556824934308 3.2122479770142176 3.0858438809906317 0 0 0
88 1 4.7778484232089085 4.777535032367195 4.667416550242633 0 0 0
89 1 6.343126901858084 3.2122418421860637 3.0858529618641075 0 0 0
90 1 7.908413100790801 4.777516004394815 4.667429671814315 0 0 0
91 1 9.473690097187925 3.2122276152473104 3.0858634804727285 0 0 0
92 1 11.03897790872915 4.777502209329178 4.667428325982196 0 0 0
93 1 12.604245076173957 3.212210568229528 3.0858508454533466 0 0 0
94 1 14.169520067635139 4.7774884184441575 4.667398268410214 0 0 0
95 1 15.734788753745375 3.212196748322951 3.0858197086787404 0 0 0
96 1 17.300066296012375 4.77747769049429 4.667358769668635 0 0 0
2173 1 18.86532177575516 3.2122989803400546 15.710707675303446 0 0 0
98 1 1.6472738509763292 7.908091904549436 4.667429929851981 0 0 0
99 1 3.212559788041584 6.342808687406714 3.0858652839351692 0 0 0
100 1 4.77784230504954 7.9080886248983 4.667434062225952 0 0 0
101 1 6.343127386403834 6.342799686338996 3.0858730511097248 0 0 0
102 1 7.9084072032908965 7.90808265660843 4.66744385368276 0 0 0
103 1 9.473694304570644 6.342791583097799 3.0858858810877514 0 0 0
104 1 11.038968681087667 7.908067730083791 4.667428215068782 0 0 0
105 1 12.604244326704068 6.342777565408404 3.0858526697588626 0 0 0
106 1 14.169513822546836 7.908052131970569 4.667394364539903 0 0 0
107 1 15.73479341229437 6.342754896996164 3.0858075986404505 0 0 0
108 1 17.300064858380093 7.908037548965164 4.66735942721202 0 0 0
420 1 17.30005407817955 14.169270539369736 17.288463103275244 0 0 0
110 1 1.6472741246856335 11.038649054734769 4.667430724603224 0 0 0
111 1 3.212563025469221 9.473358864282428 3.085868164947528 0 0 0
112 1 4.777835225420477 11.03865088070279 4.667431640873562 0 0 0
113 1 6.343128015980902 9.473362489464748 3.085885044374839 0 0 0
114 1 7.908399775062494 11.038642996090344 4.667425513782639 0 0 0
115 1 9.473687694530478 9.473354984849145 3.0858716657750263 0 0 0
116 1 11.038960882470066 11.03862306561858 4.6674049569055125 0 0 0
117 1 12.604239965124988 9.473334343361882 3.0858368779572065 0 0 0
118 1 14.16951266400198 11.038607998821247 4.667384483750327 0 0 0
119 1 15.734786497631454 9.473302191636234 3.0858152109431227 0 0 0
120 1 17.300064265391935 11.03859437101993 4.667378900666502 0 0 0
419 1 15.73477704869592 12.60397454777212 15.71076198887803 0 0 0
122 1 1.6472743275354371 14.169198053435979 4.6674011980923416 0 0 0
123 1 3.212560132282897 12.603912722563111 3.0858531165727614 0 0 0
124 1 4.777842174509433 14.169204575747596 4.667398279900571 0 0 0
125 1 6.343123223376823 12.603919696690308 3.085852912573859 0 0 0
126 1 7.9084110281957765 14.169187133686002 4.667383606343547 0 0 0
127 1 9.473684935339671 12.603903501139186 3.085825782076247 0 0 0
128 1 11.03896046237661 14.169181909283132 4.66737148386126 0 0 0
129 1 12.604232923249288 12.603887344292946 3.085827997188132 0 0 0
130 1 14.16950572749844 14.169172476815763 4.667379646735125 0 0 0
131 1 15.734776347318833 12.603849460251947 3.0858394766136397 0 0 0
132 1 17.300070782590485 14.169165467576478 4.6673709064834 0 0 0
418 1 14.169496323558121 14.16927146877921 17.288463906786756 0 0 0
134 1 1.6472744121199174 17.299737361717952 4.667379238177313 0 0 0
135 1 3.2125544929733527 15.734457978423166 3.085819060074864 0 0 0
136 1 4.777842361069783 17.299741329015802 4.667365383973026 0 0 0
137 1 6.343121564365264 15.734455099627032 3.0858026045099254 0 0 0
138 1 7.908409886621742 17.29973019713588 4.667346264682822 0 0 0
139 1 9.473677340970035 15.734448025630396 3.0857863949212807 0 0 0
140 1 11.038955856699909 17.299737825682065 4.667350541044421 0 0 0
141 1 12.60421738622406 15.73444326767882 3.0858154520174494 0 0 0
142 1 14.169527787739327 17.299735014610217 4.6673398270334925 0 0 0
143 1 15.734751058060704 15.73438684013535 3.0858463379783982 0 0 0
144 1 17.30011193374992 17.29975414260123 4.667278523842397 0 0 0
1849 1 18.865313441740458 12.603766966184967 -0.04179271465621313 0 0 0
146 1 1.647274125655517 1.6469796847864504 7.822249888772794 0 0 0
417 1 12.60422135936406 12.603982134914077 15.710765147922842 0 0 0
148 1 4.777831072067554 1.6469841679633053 7.8222636869302455 0 0 0
2701 1 18.864754110887162 18.864330919290907 -0.041508263630796904 0 0 0
150 1 7.908392102345652 1.6469772714346433 7.822279823430501 0 0 0
229 1 0.08199484846379564 3.2122692404853264 9.39993282183162 0 0 0
152 1 11.038952151832389 1.6469600306579704 7.82229233052777 0 0 0
416 1 11.038934602623673 14.169274910247715 17.28845771853542 0 0 0
154 1 14.169515499762904 1.6469519009111493 7.822286436876432 0 0 0
911 1 15.734605736689423 18.864914582186486 -0.04186226069981548 0 0 0
156 1 17.300066730619342 1.6469527860439648 7.822270296257601 0 0 0
415 1 9.47366013296282 12.603987013126549 15.710760736227144 0 0 0
158 1 1.6472741137302769 4.777543921655514 7.822280155147651 0 0 0
159 1 3.2125604954915103 3.2122607357159594 6.2444154488836965 0 0 0
160 1 4.777847507760533 4.777547974273277 7.822285591957847 0 0 0
161 1 6.343125395369872 3.2122576167846697 6.24442583271312 0 0 0
162 1 7.908409055855719 4.777540510990063 7.822294103465404 0 0 0
163 1 9.473690619034182 3.212235869547548 6.244435222015365 0 0 0
164 1 11.038972766915736 4.777522831670696 7.822302590608759 0 0 0
165 1 12.604247367745021 3.212224519864203 6.244434291349975 0 0 0
166 1 14.169523915120237 4.777511611800069 7.822285808793944 0 0 0
167 1 15.734792684936648 3.2122130294574385 6.244415149286848 0 0 0
168 1 17.300065291793885 4.77751602310083 7.822255119796243 0 0 0
1055 1 15.734814610587112 18.865020908172497 6.24431932853858 0 0 0
170 1 1.647273865491526 7.9081058955799435 7.822296976243176 0 0 0
171 1 3.2125666737446066 6.34282158141101 6.244439543535253 0 0 0
172 1 4.777850360396404 7.908103683002211 7.822299869147162 0 0 0
173 1 6.343130593198284 6.342814436626464 6.244445216229373 0 0 0
174 1 7.908409420817321 7.908098303757979 7.822308533528891 0 0 0
175 1 9.473694284855124 6.342802017134246 6.244449975143031 0 0 0
176 1 11.038971168042966 7.908083136294927 7.822306604007819 0 0 0
177 1 12.604242982079672 6.342787263916095 6.2444375532757075 0 0 0
178 1 14.169513206935536 7.908078807215614 7.822285107980973 0 0 0
179 1 15.734789592224246 6.342778588567743 6.244396135573283 0 0 0
180 1 17.300057290711234 7.908077068585219 7.822250313755586 0 0 0
403 1 9.4736556781026 9.473420724244523 15.710769710740696 0 0 0
182 1 1.647274112721977 11.03866232279021 7.8223023916671135 0 0 0
183 1 3.212558358177343 9.473379911436018 6.2444424516275605 0 0 0
184 1 4.777843908386889 11.038662536323125 7.822304726163238 0 0 0
185 1 6.343119032393506 9.473376584832293 6.244450256285508 0 0 0
186 1 7.908406392979071 11.038661304414058 7.822298400326447 0 0 0
187 1 9.473688802807159 9.47336431044884 6.244451625224788 0 0 0
188 1 11.038961154589447 11.038638135515018 7.822293132445791 0 0 0
189 1 12.604243682343897 9.473351663552043 6.2444313410342005 0 0 0
190 1 14.169510564635733 11.038635313494876 7.822279182217777 0 0 0
191 1 15.734789845658774 9.473341232540957 6.244401446404729 0 0 0
192 1 17.300055899036042 11.038639981471613 7.822264482622903 0 0 0
402 1 7.908370440130458 11.03871452749643 17.288460811546262 0 0 0
194 1 1.647274103471901 14.16921515473677 7.822284595574146 0 0 0
195 1 3.2125582740947816 12.603938184082695 6.244434129085199 0 0 0
196 1 4.777839363963709 14.169221168456462 7.82228029334664 0 0 0
197 1 6.34311895203454 12.603934624868126 6.244431898704893 0 0 0
198 1 7.908412577998045 14.169209913939902 7.822263948738553 0 0 0
199 1 9.473694028503541 12.603915641464189 6.244413735268885 0 0 0
200 1 11.038971013493448 14.169194765897867 7.822267733715996 0 0 0
201 1 12.60424597732603 12.603910809651575 6.244410521385029 0 0 0
202 1 14.169523864118457 14.169207501762624 7.822256726578038 0 0 0
203 1 15.73479491258582 12.603907965412636 6.244399227855524 0 0 0
204 1 17.300073511799418 14.169210946984075 7.8222381152858995 0 0 0
401 1 6.343094012014353 9.473419326240538 15.710765318730747 0 0 0
206 1 1.6472739833233105 17.29975314005013 7.822260114609487 0 0 0
207 1 3.212556613940056 15.734479716695276 6.244412050552662 0 0 0
208 1 4.777854613652816 17.29976410591779 7.822245908016515 0 0 0
209 1 6.343124565999316 15.734477749016643 6.244389350177529 0 0 0
210 1 7.9084192434138325 17.29975358593567 7.822235900648985 0 0 0
211 1 9.47369144667751 15.734462538374316 6.244382349995424 0 0 0
212 1 11.038976774205453 17.299746052325524 7.822247623035742 0 0 0
213 1 12.604246125963025 15.734472259254586 6.24438775513227 0 0 0
214 1 14.169535371692874 17.29976229042418 7.822229603625284 0 0 0
215 1 15.7348052570887 15.734471685396352 6.244376084235374 0 0 0
216 1 17.30009412433771 17.29977214932171 7.8221749450914455 0 0 0
133 1 0.0819945889791021 15.73445791998116 3.085819293408426 0 0 0
218 1 1.6472737496688055 1.6470020139194244 10.977635009887866 0 0 0
1197 1 12.604252577138684 18.865064756342523 12.555328402502413 0 0 0
220 1 4.777820004435361 1.647003187914718 10.977640163581935 0 0 0
1053 1 12.604244101991588 18.86502285437462 6.244369248960804 0 0 0
222 1 7.908375311077126 1.6469975239911039 10.9776500803924 0 0 0
1271 1 15.734788890502658 18.86508425802784 15.710743570710761 0 0 0
224 1 11.038936814346467 1.6469858514331635 10.97764755893434 0 0 0
983 1 15.734806963407703 18.864986232417795 3.085733356056853 0 0 0
226 1 14.169498257737636 1.646975388530794 10.977639320380346 0 0 0
1267 1 9.47367040911584 18.86509102993654 15.71072974951137 0 0 0
228 1 17.30006029554975 1.646974133407828 10.977630191145924 0 0 0
414 1 7.90836930310871 14.16927613848814 17.288442707658042 0 0 0
230 1 1.6472736929407077 4.7775517943452135 10.977646477139412 0 0 0
231 1 3.212553199451191 3.2122693403599 9.399932889641649 0 0 0
232 1 4.777837739278624 4.777564403801325 10.977650994389654 0 0 0
233 1 6.343113347715054 3.2122713203209137 9.399942132974607 0 0 0
234 1 7.908395843910319 4.77756150214005 10.977663639682417 0 0 0
235 1 9.473670154451066 3.2122621976849857 9.399953498546937 0 0 0
236 1 11.038955489148504 4.777553387689154 10.97766494939427 0 0 0
237 1 12.604235365266687 3.212252598145101 9.39994677550356 0 0 0
238 1 14.16951581799806 4.777545150359987 10.97764637334845 0 0 0
239 1 15.734793412238144 3.21225232201351 9.399931443582158 0 0 0
240 1 17.300067825596333 4.777544417263453 10.977627155050065 0 0 0
413 1 6.343103052032356 12.6039847229282 15.71074792171903 0 0 0
242 1 1.6472740969847457 7.908111367467722 10.977652323765266 0 0 0
243 1 3.212564930769917 6.342826071747596 9.39994872358394 0 0 0
244 1 4.777845833749544 7.908117486699433 10.977661276489131 0 0 0
245 1 6.3431315417611875 6.342832986645483 9.399961112212287 0 0 0
246 1 7.908403843225755 7.908120617306507 10.977673772774255 0 0 0
247 1 9.47369186393987 6.342825853783844 9.399967987816252 0 0 0
248 1 11.038968719834001 7.908114292648322 10.977679063735154 0 0 0
249 1 12.604249823771502 6.342816505786454 9.399958407689864 0 0 0
250 1 14.169525508370189 7.908106419036337 10.977660739893238 0 0 0
251 1 15.734798145300008 6.342815882384234 9.39992616112611 0 0 0
252 1 17.30006465285715 7.908113730941781 10.977635896972062 0 0 0
1199 1 15.734798839307354 18.865062903914698 12.555324870129809 0 0 0
254 1 1.6472738790132535 11.038673873823821 10.977646563366232 0 0 0
255 1 3.2125640733523326 9.473381826157622 9.399953998221225 0 0 0
256 1 4.777850206289649 11.038672399922376 10.977658543905926 0 0 0
257 1 6.343126660885553 9.4733971028476 9.39996372725933 0 0 0
258 1 7.908407709556698 11.038684460813144 10.977674341805596 0 0 0
259 1 9.47369096111103 9.473392723821142 9.399966077815773 0 0 0
260 1 11.038968882553972 11.038671637674458 10.977669203796292 0 0 0
261 1 12.60424988913764 9.473376074313892 9.399958242764765 0 0 0
262 1 14.169516778529278 11.038663368597787 10.977658371524745 0 0 0
263 1 15.734793272281683 9.47337712745094 9.39992891342469 0 0 0
264 1 17.300058572834924 11.038670561512081 10.977642371427951 0 0 0
412 1 4.777823850923621 14.169271616882273 17.28843170275177 0 0 0
266 1 1.6472739770324807 14.169221825920419 10.977640399692795 0 0 0
267 1 3.212561545364726 12.60394715295472 9.399945875017481 0 0 0
268 1 4.7778527095657894 14.16922988376484 10.977647724359471 0 0 0
269 1 6.3431278869600005 12.603957356095808 9.39994787549516 0 0 0
270 1 7.908415672866703 14.169242582652258 10.9776418273492 0 0 0
271 1 9.47369380463786 12.60394570946318 9.39993979212739 0 0 0
272 1 11.038971005185742 14.169225139678534 10.97764697115822 0 0 0
273 1 12.604249481903471 12.603933163862484 9.399940732475347 0 0 0
274 1 14.169524263530013 14.169225056788425 10.977644469756406 0 0 0
275 1 15.734794046464993 12.60394664496774 9.399927884992282 0 0 0
276 1 17.300062354124982 14.16923659343952 10.977629249535951 0 0 0
411 1 3.2125516690833544 12.603971756633488 15.710738744631028 0 0 0
278 1 1.6472744152718495 17.299771053978507 10.977631652011734 0 0 0
279 1 3.212571381930029 15.734498521294341 9.399931735175972 0 0 0
280 1 4.777852448685822 17.299780283778375 10.977623743873371 0 0 0
281 1 6.343146997869424 15.734504718586644 9.399913001026196 0 0 0
282 1 7.908426643199792 17.299783867791138 10.97761235473233 0 0 0
283 1 9.473705772714784 15.734491312940124 9.399903486325075 0 0 0
284 1 11.038981554601495 17.299776534681815 10.977624659875643 0 0 0
285 1 12.604260611556256 15.734487130476388 9.399916114348349 0 0 0
286 1 14.169534577796753 17.299774255306787 10.9776255035288 0 0 0
287 1 15.734806449878041 15.734503996676816 9.39991241686647 0 0 0
288 1 17.300073655335925 17.299784436167275 10.97760823194012 0 0 0
410 1 1.6472734019375004 14.169267115584258 17.28843037271846 0 0 0
290 1 1.647273525127867 1.6470313467636215 14.133071525519592 0 0 0
409 1 0.08199549941713975 12.603971938306996 15.71073863532778 0 0 0
292 1 4.777821487509303 1.6470268965488006 14.133063655047224 0 0 0
408 1 17.300051664584547 11.038705940026844 17.28845270348831 0 0 0
294 1 7.908371340367188 1.647021880070576 14.133056936261479 0 0 0
1195 1 9.47370591592718 18.86506951871024 12.555315889554759 0 0 0
296 1 11.038923199714773 1.647015091901853 14.133043110349787 0 0 0
909 1 12.604182699210657 18.864965230710435 -0.041816436256281966 0 0 0
298 1 14.169487400556836 1.6470069544647596 14.13302332174436 0 0 0
407 1 15.734780010557412 9.473412769756564 15.7107521803542 0 0 0
300 1 17.300046575072535 1.647001002388273 14.13300326444635 0 0 0
301 1 0.08200032259619304 3.2122915127978606 12.55534982821672 0 0 0
302 1 1.6472735205269642 4.777581533984906 14.133064619241072 0 0 0
303 1 3.2125469480515894 3.2122913990529236 12.555349764283854 0 0 0
304 1 4.777820359535139 4.777578989339415 14.133064129277894 0 0 0
305 1 6.343100970809765 3.212287461359634 12.555354629671127 0 0 0
306 1 7.908380355447815 4.7775774164335 14.133064163465649 0 0 0
307 1 9.47365467293639 3.2122846557733866 12.555355769247234 0 0 0
308 1 11.038940486154566 4.777575411951053 14.133055285778873 0 0 0
309 1 12.604215078123316 3.2122778952364763 12.555339897624995 0 0 0
310 1 14.169495356445296 4.777566435243409 14.133033759684643 0 0 0
311 1 15.73477945684837 3.2122693903894937 12.555323796084519 0 0 0
312 1 17.300059346354647 4.777559963753402 14.133015962319197 0 0 0
406 1 14.169490679259583 11.03870848454164 17.288462151636185 0 0 0
314 1 1.6472736364957379 7.90813086054821 14.133057627558633 0 0 0
315 1 3.2125497787946915 6.342844886917445 12.555355057783846 0 0 0
316 1 4.777829173235446 7.908140665767347 14.133056481073883 0 0 0
317 1 6.343105649415432 6.342843792062151 12.555363214032479 0 0 0
318 1 7.908383418017999 7.9081366764677465 14.133064767208346 0 0 0
319 1 9.473673254073738 6.342844082419324 12.555373292741207 0 0 0
320 1 11.038945250743495 7.908135093148389 14.133068192062737 0 0 0
321 1 12.6042375397402 6.342838216102506 12.555362461125387 0 0 0
322 1 14.169506988880801 7.9081260492783105 14.133055127470309 0 0 0
323 1 15.734793636279159 6.342832217742251 12.555341001224306 0 0 0
324 1 17.300064492569618 7.908122075414848 14.133041778568527 0 0 0
1127 1 15.73481549707271 18.865041458461036 9.399882350918809 0 0 0
326 1 1.6472738752279414 11.038689239019092 14.133036564625865 0 0 0
327 1 3.212559017730783 9.473398788810425 12.555348510438261 0 0 0
328 1 4.7778346843216415 11.038694425633746 14.133043417022874 0 0 0
329 1 6.3431169492720985 9.473409960540742 12.555364947825707 0 0 0
330 1 7.908385893673665 11.038701073008749 14.133062295689518 0 0 0
331 1 9.473681738863894 9.473410235952363 12.555373265587471 0 0 0
332 1 11.038955719468325 11.038695583264953 14.133076946947202 0 0 0
333 1 12.604243271127768 9.473400530689831 12.55537267081444 0 0 0
334 1 14.169512087013453 11.038682750101996 14.133070470346148 0 0 0
335 1 15.734800187268021 9.473398464745635 12.555354737139831 0 0 0
336 1 17.300064554038343 11.038683259115434 14.133056387236266 0 0 0
981 1 12.604223381179569 18.864991616672402 3.0857882315006595 0 0 0
338 1 1.647273945670227 14.169247230568349 14.133013499194583 0 0 0
339 1 3.2125622993448033 12.603954427010317 12.555331542677763 0 0 0
340 1 4.7778348287563 14.16924413334865 14.133022956161138 0 0 0
341 1 6.343120425492168 12.603970250166611 12.555352237456958 0 0 0
342 1 7.90839751971348 14.169256633559172 14.133049551854244 0 0 0
343 1 9.47368573860394 12.603971468993802 12.555361352159297 0 0 0
344 1 11.038964337537394 14.169249581887122 14.13306229819377 0 0 0
345 1 12.604247826085638 12.603962617798352 12.555358351335235 0 0 0
346 1 14.169519769602676 14.169244258868222 14.13305854871732 0 0 0
347 1 15.734798973653287 12.603955533588847 12.555351534965643 0 0 0
348 1 17.30006494187005 14.169241967251637 14.13304984163916 0 0 0
979 1 9.473665259193018 18.86500080926388 3.085768056495238 0 0 0
350 1 1.647273761472941 17.299795656967778 14.132996209322704 0 0 0
351 1 3.212562867444825 15.734511441470229 12.555317678473875 0 0 0
352 1 4.777843283966344 17.299798906185845 14.133009667412937 0 0 0
353 1 6.343129120301191 15.734520069000387 12.555325947612747 0 0 0
354 1 7.908404534844911 17.299802851689485 14.13302863683927 0 0 0
355 1 9.473701148279748 15.73452577665873 12.555333230899581 0 0 0
356 1 11.038968631170682 17.29980577472116 14.133039268169817 0 0 0
357 1 12.604249019182241 15.734514066830071 12.555343417897301 0 0 0
358 1 14.169522271624627 17.299796824867556 14.133041625666054 0 0 0
359 1 15.734797464225716 15.734514265430146 12.555339869526666 0 0 0
360 1 17.300065180242992 17.299791564318287 14.133033583768116 0 0 0
432 1 17.30005563341415 17.299827867063897 17.288455362751648 0 0 0
362 1 1.6472733937686115 1.6470570114389924 17.28850040543126 0 0 0
431 1 15.734785229561629 15.734533871040302 15.710750725932732 0 0 0
364 1 4.777820187825255 1.6470561031401028 17.288497743229048 0 0 0
430 1 14.169501367860725 17.299829120756968 17.28845460528213 0 0 0
366 1 7.908372273401816 1.6470516625580505 17.288479631720488 0 0 0
429 1 12.604229854033525 15.734538895334836 15.710754054410572 0 0 0
368 1 11.038922542920078 1.6470459221387281 17.28845739568665 0 0 0
428 1 11.038942772885733 17.299828717568218 17.288442502491783 0 0 0
370 1 14.16947697881995 1.6470438391126703 17.28843442235339 0 0 0
427 1 9.473666327196451 15.734546068287687 15.710740356976064 0 0 0
372 1 17.300037438615032 1.6470372334223045 17.28841476597101 0 0 0
405 1 12.604217785071652 9.473418441003712 15.710763156601217 0 0 0
374 1 1.6472733860048034 4.777604990590962 17.28850030847083 0 0 0
375 1 3.212545580638177 3.2123215115605115 15.71077717179243 0 0 0
376 1 4.777819966306207 4.777605468136981 17.288491054939033 0 0 0
377 1 6.343096118632303 3.2123147165796 15.710776850666674 0 0 0
378 1 7.908372171305127 4.777599656315925 17.288481037756075 0 0 0
379 1 9.473647869181399 3.2123084323946474 15.710766011007331 0 0 0
380 1 11.038928669226443 4.777596727589486 17.288463801981003 0 0 0
381 1 12.604201916754427 3.2123006373968885 15.71074675766598 0 0 0
382 1 14.169489562798134 4.777593426285897 17.288443727427893 0 0 0
383 1 15.734759184554784 3.2122985342208734 15.7107207351767 0 0 0
384 1 17.300044228040896 4.77758918893584 17.288423364183934 0 0 0
404 1 11.038929794975713 11.038711905865943 17.288470451855453 0 0 0
386 1 1.6472734704820469 7.908160033394228 17.288481249596583 0 0 0
387 1 3.2125431087574223 6.342870115385074 15.710776511760336 0 0 0
388 1 4.77781660313802 7.908158506774685 17.28847814070305 0 0 0
389 1 6.343090317212626 6.342863473396641 15.710772857087125 0 0 0
390 1 7.908373299596241 7.908155747639556 17.288475073520395 0 0 0
391 1 9.473648591810711 6.342856964524602 15.710773300688434 0 0 0
392 1 11.038929377947902 7.908148236473981 17.28846924335673 0 0 0
393 1 12.604214954886382 6.34285406211386 15.710757433553985 0 0 0
394 1 14.1694905791676 7.908144367688407 17.288454242313787 0 0 0
395 1 15.73477584872598 6.342851125865704 15.710736582336175 0 0 0
396 1 17.300052316188037 7.90814085889342 17.288436158673733 0 0 0
397 1 0.08200263096846414 9.473422033225498 15.710764163725598 0 0 0
398 1 1.6472735337385107 11.03870994538943 17.28845714860543 0 0 0
399 1 3.2125447845042534 9.473422179900066 15.710764068806585 0 0 0
400 1 4.77781978985632 11.038718824542794 17.288455983376736 0 0 0
1265 1 6.343102708003212 18.865095535334405 15.710707704208165 0 0 0
975 1 3.212551731266004 18.864996622755683 3.085796090970689 0 0 0
903 1 3.2125511974000944 18.864976871800295 -0.04182549694340616 0 0 0
1119 1 3.2125749183022823 18.86503139927405 9.399918822914655 0 0 0
1263 1 3.212558616870754 18.86509013012532 15.710701004128635 0 0 0
1191 1 3.2125658742966374 18.865057525781495 12.555309541232443 0 0 0
1193 1 6.343139122439327 18.865070826434987 12.555306230243994 0 0 0
1047 1 3.212557050719698 18.865014552817502 6.24438880639483 0 0 0
973 1 0.08199759629931237 18.864996718196494 3.085796291698765 0 0 0
901 1 0.08199781914763023 18.864977187109666 -0.04182460175524026 0 0 0
613 1 0.08199710789799494 9.473528822688008 25.17698214523185 0 0 0
434 1 1.6472732753475592 1.6470826371048983 20.443929300828437 0 0 0
553 1 0.08199963288413079 12.604048764302256 22.021555895367115 0 0 0
436 1 4.777824430646094 1.6470825093547619 20.443922908167174 0 0 0
860 1 11.038956002938598 17.299964960833496 36.20336245893929 0 0 0
438 1 7.908377242225213 1.6470836919773713 20.443900430430432 0 0 0
625 1 0.08199836333767041 12.604089582733515 25.176954466619296 0 0 0
440 1 11.038932397378241 1.6470816184481036 20.443869248630858 0 0 0
893 1 12.604232006363139 12.60414039147125 37.7740420712154 0 0 0
442 1 14.169490639462488 1.6470776355530015 20.44383089780703 0 0 0
859 1 9.473678016867817 15.734689498077111 34.646435033867725 0 0 0
444 1 17.30004593230911 1.6470801631106708 20.443809407483826 0 0 0
892 1 9.473676709834166 12.60413610395984 37.7740447547731 0 0 0
446 1 1.6472732761391184 4.777635108856593 20.443923286141345 0 0 0
2437 1 18.8653240334628 15.734623954786898 25.176928346787722 0 0 0
448 1 4.777822382295171 4.7776355330968405 20.443916884006065 0 0 0
637 1 0.08199918430065156 15.734645771313069 25.176926250610514 0 0 0
450 1 7.908376497953471 4.777637107835377 20.443896649377947 0 0 0
1343 1 15.734768322936223 18.86511523382404 18.866153367046746 0 0 0
452 1 11.038935206637527 4.7776328086713 20.44386620293452 0 0 0
445 1 0.08199685755257209 3.2123464171501004 18.866210947928476 0 0 0
454 1 14.169490983805732 4.777627392162891 20.443844753507122 0 0 0
1623 1 3.2125538537219085 18.865225408945598 31.487861670929146 0 0 0
456 1 17.3000434745202 4.777626444281927 20.443820813698373 0 0 0
891 1 6.343117245704883 12.604132250322394 37.774046752845756 0 0 0
458 1 1.6472731365563882 7.908191059990505 20.443900973521416 0 0 0
858 1 7.908398039787647 17.299962780906913 36.20336856614529 0 0 0
460 1 4.777826603112486 7.908192326607873 20.443896565815624 0 0 0
857 1 6.34311776775491 15.734688318523647 34.64644104365502 0 0 0
462 1 7.908380852313691 7.908191753080116 20.443881893564658 0 0 0