LAMMPS data file via write_data, version 2 Aug 2023, timestep = 236, units = metal

3601 atoms
3 atom types

0.08200027163355528 37.64865172836656 xlo xhi
0.08200285375875194 37.64864914624128 ylo yhi
-15.829219557693557 53.55987155769361 zlo zhi

Masses

1 183.84
2 1.008
3 4.0026

Atoms # atomic

2065 1 18.865301200288428 12.604118532302785 9.399491720608351 0 0 0
2 1 1.647277871953656 1.6472782588098493 1.5279457615391498 0 0 0
2185 1 18.86531669639128 6.343042242288283 15.709998727210548 0 0 0
4 1 4.777848491108032 1.6472842578591398 1.5279392255748898 0 0 0
2101 1 18.865319156033095 3.212499429772946 12.55451145655267 0 0 0
6 1 7.908409994782771 1.647297580003476 1.527921810931924 0 0 0
193 1 0.08201604774210085 12.604188927084667 6.24353238716912 0 0 0
8 1 11.038954628704131 1.6473016718653002 1.5279025067817262 0 0 0
2137 1 18.86530560390139 12.60413905284127 12.554823676347873 0 0 0
10 1 14.169504698393736 1.6472980041803829 1.5278982397422798 0 0 0
426 1 7.908321378577734 17.30003739292834 17.28773317697027 0 0 0
12 1 17.300053820288362 1.6472973915070404 1.5279018026888995 0 0 0
905 1 6.343216297833093 18.86532599929602 -0.04253551319840131 0 0 0
14 1 1.6472781650585968 4.777838000820513 1.5279420051328159 0 0 0
15 1 3.212563560649917 3.2125669074892937 -0.04272626665917665 0 0 0
16 1 4.777852378533701 4.777852854528675 1.52794015427052 0 0 0
17 1 6.343129097651901 3.212586354875597 -0.04273633576295725 0 0 0
18 1 7.908412495457928 4.777870762944387 1.5279442852181104 0 0 0
19 1 9.473686393145789 3.212605253559596 -0.04274829872525959 0 0 0
20 1 11.038968829230601 4.777868086633616 1.5279863678524672 0 0 0
21 1 12.604243099391839 3.2126151618655396 -0.04273523811266434 0 0 0
22 1 14.169527050658655 4.777870235987106 1.5280496742129996 0 0 0
23 1 15.734795785288643 3.212644277956749 -0.04269869969539943 0 0 0
24 1 17.3000689005245 4.777885698988979 1.5280835639285097 0 0 0
903 1 3.21259227819164 18.86532599981028 -0.04266119104643247 0 0 0
26 1 1.6472785340085907 7.908401738157706 1.5279376725640788 0 0 0
27 1 3.2125678912905204 6.343128959404112 -0.042724291483215854 0 0 0
28 1 4.777854905339914 7.908409858766129 1.5279527541121203 0 0 0
29 1 6.343148331012571 6.343157303133053 -0.04273285586912213 0 0 0
30 1 7.908413721672418 7.908406209653461 1.5280124227353589 0 0 0
31 1 9.473728820292196 6.343173422208439 -0.04269383050964622 0 0 0
32 1 11.038981582598497 7.908405385714241 1.5281028556402405 0 0 0
33 1 12.60429191907632 6.3431859235436665 -0.04259324698418028 0 0 0
34 1 14.169531118226145 7.9084718117732775 1.5281436960325887 0 0 0
35 1 15.734821655994526 6.343241612877326 -0.04252706679041481 0 0 0
36 1 17.30006850200553 7.9085182904918305 1.5281595775425092 0 0 0
2125 1 18.86530600946124 9.47357976827343 12.55472017814491 0 0 0
38 1 1.647279186463525 11.038941142131657 1.5279506541340178 0 0 0
39 1 3.212575367029272 9.473681311321668 -0.04273188055709342 0 0 0
40 1 4.777842573248179 11.038942536397736 1.5279934048489476 0 0 0
41 1 6.343163590631185 9.473708039840071 -0.04268804086729167 0 0 0
42 1 7.908401885031571 11.03895361909757 1.5280975513342576 0 0 0
43 1 9.473736505190569 9.47371969698391 -0.04257119639951859 0 0 0
44 1 11.03898055083864 11.039010799898621 1.5282059466538307 0 0 0
45 1 12.604287011671143 9.47379609699116 -0.04245810816802037 0 0 0
46 1 14.169537758987916 11.039057893850446 1.5283166630062504 0 0 0
47 1 15.734807439165486 9.473920899588089 -0.042424666604500234 0 0 0
48 1 17.3000701298381 11.039067107196125 1.5285171606199894 0 0 0
1197 1 12.604129547094498 18.86532599977555 12.554807914199746 0 0 0
50 1 1.6472799638622446 14.169488779442634 1.5279845225475603 0 0 0
51 1 3.2125670780917166 12.604226782252693 -0.04271474707545704 0 0 0
52 1 4.777836651908915 14.169502321129944 1.5280398864065887 0 0 0
53 1 6.343144758247608 12.604252917873996 -0.04259561797785795 0 0 0
54 1 7.908427724828657 14.169525537731463 1.5281558353545956 0 0 0
55 1 9.473746188909367 12.60429598269686 -0.042433509845639476 0 0 0
56 1 11.039006397023677 14.169568072812055 1.528336549287957 0 0 0
57 1 12.604348157492403 12.6044072921423 -0.04231056051430417 0 0 0
58 1 14.169577096504753 14.169571190256276 1.528603754286784 0 0 0
59 1 15.734933415823875 12.604424001075394 -0.04212856206691306 0 0 0
60 1 17.30009806823538 14.169572854707726 1.528721361595028 0 0 0
425 1 6.343047044829114 15.734751236337686 15.70999997803227 0 0 0
62 1 1.6472804654237732 17.300054878003863 1.5280008868889463 0 0 0
63 1 3.212584419520163 15.73478151725271 -0.0426688267452688 0 0 0
64 1 4.777846730860291 17.300054949782293 1.52806390180915 0 0 0
65 1 6.3432030000390265 15.734796014335679 -0.04254440670860761 0 0 0
66 1 7.908446275228464 17.30005413826103 1.5282063300310347 0 0 0
67 1 9.473867362126539 15.734819470141266 -0.04238102714613119 0 0 0
68 1 11.039040063664613 17.300039074434594 1.5284534598856916 0 0 0
69 1 12.604431244459509 15.734873138061703 -0.04220134299774908 0 0 0
70 1 14.16956347356454 17.300058386669996 1.5286541398825308 0 0 0
71 1 15.734896049186636 15.734842678869866 -0.04207153307160219 0 0 0
72 1 17.299977822781756 17.29998576136684 1.5288737152405194 0 0 0
424 1 4.77778703394028 17.300035912566926 17.28769584033026 0 0 0
74 1 1.6472778562794526 1.6472742212402471 4.666447667868517 0 0 0
423 1 3.2125269304166206 15.734745184150013 15.709973042690638 0 0 0
76 1 4.7778417219578 1.6472745117554228 4.666442607164526 0 0 0
205 1 0.08202025469144551 15.734744952071843 6.243559111567142 0 0 0
78 1 7.908397897902299 1.6472729992478543 4.666429618518818 0 0 0
2209 1 18.86530963871509 12.604154096210568 15.710158623143913 0 0 0
80 1 11.038938735777405 1.647276656371879 4.666413539552965 0 0 0
1055 1 15.734757634978305 18.865325998302698 6.2441877988473555 0 0 0
82 1 14.169485645203828 1.6472748160923967 4.666410576440029 0 0 0
1125 1 12.604086688942841 18.865325999350407 9.399470500468595 0 0 0
84 1 17.300042774214468 1.64726643569667 4.666420674048445 0 0 0
422 1 1.6472783940909046 17.30003266664158 17.28768199240856 0 0 0
86 1 1.6472782733277411 4.777819117080672 4.666438626640196 0 0 0
87 1 3.212562059373857 3.212553015193105 3.0848705285209426 0 0 0
88 1 4.777830209080859 4.777821378196497 4.66644101199427 0 0 0
89 1 6.343124833315013 3.212564458378643 3.0848638268860644 0 0 0
90 1 7.908379540356256 4.777824443635545 4.66646115952836 0 0 0
91 1 9.473674169635595 3.212566882295419 3.0848643348983504 0 0 0
92 1 11.03894673585971 4.777827547070577 4.666498480203181 0 0 0
93 1 12.604226248957753 3.2125648793989927 3.0848849104672644 0 0 0
94 1 14.169513324307506 4.777822251273496 4.666545654519427 0 0 0
95 1 15.734784896404141 3.2125555533940617 3.0849153937469342 0 0 0
96 1 17.30006631436307 4.777820713986804 4.666574391043858 0 0 0
421 1 0.0820300873713825 15.734745218931645 15.709973691812893 0 0 0
98 1 1.6472788001326995 7.90836914950923 4.6664468852402585 0 0 0
99 1 3.2125614753849137 6.3431121352053985 3.084866607603317 0 0 0
100 1 4.777820214235992 7.908369867248526 4.6664708211055315 0 0 0
101 1 6.343114443472419 6.343116470813939 3.0848958702146643 0 0 0
102 1 7.908373105933837 7.9083701756073985 4.666529680703379 0 0 0
103 1 9.473670652983612 6.3431183199136685 3.0849483822945167 0 0 0
104 1 11.038933915119216 7.908371971212613 4.666607048083865 0 0 0
105 1 12.604248244924966 6.343118301271112 3.08500904062022 0 0 0
106 1 14.16947646006878 7.908371144190338 4.666663705000362 0 0 0
107 1 15.734793882839321 6.343136883146564 3.0850482363014167 0 0 0
108 1 17.30002294593859 7.908394164385208 4.666685047250725 0 0 0
420 1 17.300015068347733 14.16944015124239 17.287844524826717 0 0 0
110 1 1.6472795063883892 11.038917373539915 4.666467247502199 0 0 0
111 1 3.2125551417801606 9.473656929739198 3.0848893294461206 0 0 0
112 1 4.777822002866866 11.038922000780708 4.666511020301463 0 0 0
113 1 6.343109679084978 9.473655740795554 3.0849469822164135 0 0 0
114 1 7.9083705075948 11.038917299802318 4.666599505045584 0 0 0
115 1 9.473676242388764 9.47366673404849 3.08503472685981 0 0 0
116 1 11.038916394096871 11.038928935074686 4.666678887946043 0 0 0
117 1 12.604220876754312 9.473689978363712 3.08510883160771 0 0 0
118 1 14.169454916690103 11.038926084153045 4.666807218606462 0 0 0
119 1 15.734750705447087 9.473694521002674 3.0851856773285196 0 0 0
120 1 17.3000576226935 11.038916041413026 4.666949098942085 0 0 0
419 1 15.734723043332142 12.60415391797136 15.7101323664432 0 0 0
122 1 1.6472801067696825 14.16946888103638 4.666491535775356 0 0 0
123 1 3.2125512010943567 12.604199519961279 3.084918956828371 0 0 0
124 1 4.777810732948996 14.169471707321158 4.666544420545922 0 0 0
125 1 6.3431042233269945 12.604216078476677 3.0849946762104055 0 0 0
126 1 7.908344429332239 14.169477318322668 4.666669944164341 0 0 0
127 1 9.473667873164679 12.60423262651461 3.0851129820418977 0 0 0
128 1 11.03888394001291 14.169489706855765 4.666833424517546 0 0 0
129 1 12.60421703629731 12.604256262788564 3.0852937627149974 0 0 0
130 1 14.169463666412776 14.16948258326472 4.667039680330556 0 0 0
131 1 15.734800365419158 12.604262428033866 3.085498437394474 0 0 0
132 1 17.300027481994885 14.169501695720585 4.667212281685298 0 0 0
418 1 14.169434480010692 14.169448789811385 17.28780821082922 0 0 0
134 1 1.6472805822099532 17.300037319654177 4.666521324141783 0 0 0
135 1 3.212546376242472 15.7347673349494 3.084947697991974 0 0 0
136 1 4.777814754991498 17.300047762787802 4.666571620426554 0 0 0
137 1 6.343095493370958 15.734772441249687 3.085055720787465 0 0 0
138 1 7.9083528880622085 17.30005161898161 4.666712406720517 0 0 0
139 1 9.473637302392271 15.734776957499175 3.0852232706676896 0 0 0
140 1 11.03889637329477 17.30006640701551 4.666903792029307 0 0 0
141 1 12.604235295246585 15.734785141929915 3.0854434032559013 0 0 0
142 1 14.16948460142202 17.300019337382814 4.66712155807221 0 0 0
143 1 15.734766558426708 15.734782176456156 3.0856610014361454 0 0 0
144 1 17.30004660721895 17.30002032907396 4.667251618023991 0 0 0
133 1 0.08201458479913694 15.734767340275058 3.084949782782981 0 0 0
146 1 1.647277877346891 1.6472714164070639 7.821358858536758 0 0 0
417 1 12.604148692945502 12.604164663388623 15.710084167216962 0 0 0
148 1 4.7778325462018865 1.6472701056654675 7.821356456781435 0 0 0
3061 1 18.865309463362987 18.865325999842515 15.710235585202119 0 0 0
150 1 7.908383945538944 1.647265334510265 7.821348516420851 0 0 0
2989 1 18.86529872179594 18.865325999545334 12.554931026674744 0 0 0
152 1 11.038927506129172 1.6472610996541361 7.821338582368347 0 0 0
416 1 11.038871402058955 14.169454493047358 17.2877644940061 0 0 0
154 1 14.169474622637932 1.6472576701368373 7.821334633835269 0 0 0
2041 1 18.865319479286264 6.34304266462535 9.399186232627557 0 0 0
156 1 17.30003318555682 1.64724838938162 7.821346826364358 0 0 0
415 1 9.473590732372422 12.60416955398609 15.710030770102723 0 0 0
158 1 1.6472782011549094 4.777806483234855 7.821356146440279 0 0 0
159 1 3.2125535752380237 3.2125412372346447 6.243477420357191 0 0 0
160 1 4.777816491096843 4.777803341109154 7.821358598609062 0 0 0
161 1 6.3431051718707385 3.2125367938764327 6.243474341812066 0 0 0
162 1 7.908363479490678 4.777799257647324 7.8213653055304935 0 0 0
163 1 9.47365636215059 3.2125379561716736 6.243474415581918 0 0 0
164 1 11.03891965090838 4.777788583124195 7.821395725574209 0 0 0
165 1 12.60421286578379 3.2125376790382276 6.243488343891967 0 0 0
166 1 14.169489880223937 4.777780002451458 7.821437563612421 0 0 0
167 1 15.734772000677216 3.212527762128921 6.243517796665854 0 0 0
168 1 17.300057888955404 4.7777809068036525 7.821460704054854 0 0 0
1269 1 12.604146741849565 18.86532599996839 15.710140821421787 0 0 0
170 1 1.647278673540509 7.908346803091954 7.821358428293858 0 0 0
171 1 3.2125443785706485 6.343082299830405 6.243478447094956 0 0 0
172 1 4.77780420497281 7.90834773560835 7.821376523886244 0 0 0
173 1 6.343085412955109 6.343082886817012 6.243501459715488 0 0 0
174 1 7.908342348913367 7.908341030074629 7.821433886883133 0 0 0
175 1 9.473644964764615 6.343078778080409 6.243550975622684 0 0 0
176 1 11.038903635177592 7.908329108152114 7.821507462835325 0 0 0
177 1 12.604209596417872 6.343072358913619 6.243617544980279 0 0 0
178 1 14.169461520016275 7.908330304115461 7.821561062638241 0 0 0
179 1 15.734771395741188 6.343077601293558 6.2436502281214254 0 0 0
180 1 17.30001163715141 7.908332693149889 7.821575658218873 0 0 0
2029 1 18.865324004109237 3.212495199082803 9.399084002497887 0 0 0
182 1 1.647279297292401 11.03889889803004 7.821384413917157 0 0 0
183 1 3.2125453522535916 9.473633045979929 6.2434958476909035 0 0 0
184 1 4.7777923124899635 11.038898988270255 7.821420010379207 0 0 0
185 1 6.343076255081308 9.473634030256902 6.2435601580259386 0 0 0
186 1 7.908329002745402 11.038893067830458 7.821502428091495 0 0 0
187 1 9.473632215839222 9.47362735513773 6.243642058641376 0 0 0
188 1 11.03888213744922 11.038883200716867 7.821593042520191 0 0 0
189 1 12.60417971894293 9.473625149581565 6.243709710109733 0 0 0
190 1 14.169439529783206 11.038891596395484 7.821651160210561 0 0 0
191 1 15.734724283454266 9.473630222757814 6.243758739968683 0 0 0
192 1 17.30000805350821 11.038875878649895 7.82174645708708 0 0 0
2197 1 18.865311771662498 9.473576475990633 15.710083482688844 0 0 0
194 1 1.6472798836411802 14.169464326104396 7.821414489479501 0 0 0
195 1 3.2125433638192646 12.60418884952755 6.243530939743903 0 0 0
196 1 4.777787324662047 14.169462597947414 7.821454215880419 0 0 0
197 1 6.34307299912738 12.60417791803404 6.243612397296761 0 0 0
198 1 7.908324534313086 14.16944674401186 7.821548799069607 0 0 0
199 1 9.473612869589314 12.604180260719158 6.24370963968753 0 0 0
200 1 11.038874707175372 14.169453006794615 7.821662885655706 0 0 0
201 1 12.6041426811129 12.604173686848954 6.243839077237515 0 0 0
202 1 14.169409257252157 14.169448950012663 7.821820165339753 0 0 0
203 1 15.734737376074515 12.6041726213512 6.243991914312978 0 0 0
204 1 17.299999962795532 14.169455472214963 7.821953140261497 0 0 0
911 1 15.73482384786022 18.865325995797694 -0.041883134177682343 0 0 0
206 1 1.6472802518809906 17.300036812466214 7.821436785716113 0 0 0
207 1 3.2125401824668542 15.734744962434963 6.243557329177965 0 0 0
208 1 4.777780475458513 17.300027964469557 7.821473192127001 0 0 0
209 1 6.343071919318728 15.734749059292298 6.24364138261062 0 0 0
210 1 7.908309369470697 17.300027954069154 7.821590646503078 0 0 0
211 1 9.473599919803501 15.734766940469179 6.243783850869874 0 0 0
212 1 11.03884069417286 17.300048115568273 7.82174140940487 0 0 0
213 1 12.604126920381233 15.734779992845828 6.243971764994186 0 0 0
214 1 14.169408358010049 17.300049210147865 7.821912232589596 0 0 0
215 1 15.734739078616578 15.734777182725756 6.244159129456219 0 0 0
216 1 17.30001861917968 17.30003560006241 7.8220511346102946 0 0 0
2773 1 18.865315805315074 18.86532599641892 3.0858811271489808 0 0 0
218 1 1.6472778390409633 1.6472721793725997 10.976767952395983 0 0 0
2221 1 18.86530515579901 15.734730366047238 15.71021724927611 0 0 0
220 1 4.777829901545879 1.6472688522177947 10.97676740522009 0 0 0
265 1 0.08202878532576335 12.604176686926051 9.399086615760861 0 0 0
222 1 7.908378741494556 1.6472632284404525 10.976763357986549 0 0 0
109 1 0.08200312464261827 9.473656749021734 3.084890158233322 0 0 0
224 1 11.03892272012482 1.6472591592896282 10.976758630207579 0 0 0
1909 1 18.865313535493605 9.473682212150017 3.0852701165841223 0 0 0
226 1 14.16946807370167 1.6472531569761573 10.976752761544766 0 0 0
2077 1 18.865295997116885 15.734719595110118 9.399642872347895 0 0 0
228 1 17.300028088455917 1.6472514396914921 10.976756065838794 0 0 0
414 1 7.908329855866768 14.16945975518692 17.287721091114214 0 0 0
230 1 1.6472780555804714 4.777805024784806 10.976771200739392 0 0 0
231 1 3.212551766692785 3.212537698997292 9.39903795368749 0 0 0
232 1 4.777816043110267 4.777799404744036 10.976771749543932 0 0 0
233 1 6.343097438664251 3.212531155247869 9.399035520849809 0 0 0
234 1 7.908354989684381 4.777789386082784 10.976777811244215 0 0 0
235 1 9.473643608860508 3.212522209861116 9.399034107962688 0 0 0
236 1 11.038903956087937 4.777779381294339 10.97679140624684 0 0 0
237 1 12.604195522227474 3.212514960030814 9.399042375374428 0 0 0
238 1 14.169469721395481 4.777763136788819 10.976825792759415 0 0 0
239 1 15.734761942875307 3.2125004592448634 9.399064106757766 0 0 0
240 1 17.300050916009987 4.777757075289247 10.976848214456549 0 0 0
413 1 6.343054516727241 12.60417244287992 15.709984247285364 0 0 0
242 1 1.6472784446738369 7.908339565606689 10.976777061218641 0 0 0
243 1 3.2125419263384343 6.343070938949853 9.399041977616566 0 0 0
244 1 4.77779647449115 7.908336403645925 10.976787707812079 0 0 0
245 1 6.343073947620917 6.343065962484898 9.399053401762119 0 0 0
246 1 7.908332215689267 7.9083313867458225 10.976817940607202 0 0 0
247 1 9.473618175297007 6.3430533573631855 9.399091687585427 0 0 0
248 1 11.038885304581886 7.908314680144193 10.97687645108346 0 0 0
249 1 12.604188822394775 6.343038716611563 9.399146193351543 0 0 0
250 1 14.169455137943629 7.908295731719309 10.976934026715227 0 0 0
251 1 15.734755610955974 6.343034445016707 9.399192612713918 0 0 0
252 1 17.3000158427643 7.908293820599027 10.976966445803395 0 0 0
181 1 0.0820128143827219 9.473632841488621 6.243496665580446 0 0 0
254 1 1.6472788821646325 11.038886573529066 10.976791568762504 0 0 0
255 1 3.2125316445979646 9.473614106053997 9.399057092067064 0 0 0
256 1 4.777783352536952 11.038890025547298 10.976815879423755 0 0 0
257 1 6.343052157808786 9.47361265582311 9.399101683908686 0 0 0
258 1 7.9083097568997065 11.038885478897472 10.976880893372554 0 0 0
259 1 9.473602847368062 9.473599882146969 9.399173896562923 0 0 0
260 1 11.0388710602303 11.0388678979802 10.97696412434591 0 0 0
261 1 12.604168372491907 9.473592123111393 9.399245797098134 0 0 0
262 1 14.169434605021804 11.038857119988561 10.977032148081879 0 0 0
263 1 15.73472176469567 9.473596316528685 9.39928803830145 0 0 0
264 1 17.300005628358644 11.038859149416158 10.977071590911342 0 0 0
412 1 4.777797837541477 14.169459844934478 17.287685120913817 0 0 0
266 1 1.647279319046563 14.16945643327262 10.976816691027336 0 0 0
267 1 3.2125299366256304 12.604176725384779 9.39908547899305 0 0 0
268 1 4.777772561139236 14.169456328023555 10.976853150646201 0 0 0
269 1 6.343044110884284 12.604171833472586 9.39915281314759 0 0 0
270 1 7.908301314588221 14.169441326506151 10.976929181334487 0 0 0
271 1 9.473593243687263 12.604159308546379 9.399242526510891 0 0 0
272 1 11.03885376336935 14.169425451877009 10.977027012491744 0 0 0
273 1 12.604143264166966 12.6041480005582 9.39932817149736 0 0 0
274 1 14.169417724990044 14.169423992745275 10.977124106107816 0 0 0
275 1 15.734715405796592 12.604135510758482 9.399413101997803 0 0 0
276 1 17.29999599831362 14.169416011881987 10.9771983520092 0 0 0
411 1 3.2125345628566238 12.604175047059465 15.709955676991568 0 0 0
278 1 1.647279443696535 17.30003892652216 10.976827927342145 0 0 0
279 1 3.2125255832219834 15.734746846584953 9.399112856491247 0 0 0
280 1 4.777777829906441 17.300036388763676 10.976863281658138 0 0 0
281 1 6.343032615236046 15.734731638360655 9.399186568590535 0 0 0
282 1 7.908284566041985 17.3000186194202 10.976965834120158 0 0 0
283 1 9.47357958439012 15.734728900151264 9.39929360316223 0 0 0
284 1 11.038838036600671 17.300016396097714 10.977070393030552 0 0 0
285 1 12.604122058968748 15.73473594739096 9.399416867356113 0 0 0
286 1 14.169392182960994 17.30001556506817 10.977183589385826 0 0 0
287 1 15.734682052566196 15.734743102153017 9.399546919012197 0 0 0
288 1 17.299985264362608 17.300022369057068 10.97726997153998 0 0 0
410 1 1.6472781595690533 14.169461217659158 17.287668434061914 0 0 0
290 1 1.6472777954705182 1.647271519309874 14.132209500892486 0 0 0
409 1 0.08202195099484205 12.604174851783542 15.709956138050375 0 0 0
292 1 4.777827751060489 1.6472702917485675 14.13220854407501 0 0 0
408 1 17.300020084184045 11.038870289007011 17.287789573037347 0 0 0
294 1 7.908377051561511 1.6472663458361774 14.1322071086907 0 0 0
2149 1 18.8653006101101 15.73472247879616 12.554896904678483 0 0 0
296 1 11.038925826595573 1.6472622670344799 14.132204898701584 0 0 0
121 1 0.08200855515776616 12.604199513196379 3.084920605588379 0 0 0
298 1 14.169473093757407 1.6472568592022248 14.132203765497307 0 0 0
407 1 15.734731484601431 9.47358653451479 15.710061941980172 0 0 0
300 1 17.300029559117657 1.6472449459227752 14.132206715450568 0 0 0
325 1 0.08202246454772691 9.473610523210334 12.554507764959098 0 0 0
302 1 1.647277895331446 4.777808650204335 14.132212306040598 0 0 0
303 1 3.212550575210754 3.2125378232200075 12.554489073946417 0 0 0
304 1 4.777820016341347 4.777802604208019 14.132214362398903 0 0 0
305 1 6.343097397862226 3.212530367719367 12.554488815277061 0 0 0
306 1 7.90836224246074 4.77779245984857 14.132218510527823 0 0 0
307 1 9.473641580592957 3.2125224219737127 12.554489528709082 0 0 0
308 1 11.038903912738697 4.777781651928078 14.132228343057465 0 0 0
309 1 12.604189985415701 3.2125133862439306 12.554490710846002 0 0 0
310 1 14.169465048776756 4.777775159796966 14.132236635756827 0 0 0
311 1 15.734751485146028 3.2125099241366413 12.554497503322901 0 0 0
312 1 17.30003431100026 4.777768751519444 14.132250182229352 0 0 0
406 1 14.169443870991321 11.038877120706678 17.287762016298302 0 0 0
314 1 1.6472781043485882 7.908345154639911 14.132219538559598 0 0 0
315 1 3.212543148031501 6.3430719922795324 12.554494940769153 0 0 0
316 1 4.7778067604690895 7.908339570186072 14.132225999508442 0 0 0
317 1 6.343077606834665 6.34306297257328 12.554502643561003 0 0 0
318 1 7.908337482351829 7.908328254951557 14.132246031330146 0 0 0
319 1 9.473616411276767 6.34305226740043 12.55452098633513 0 0 0
320 1 11.038886311486554 7.908319966008677 14.132276813238532 0 0 0
321 1 12.604170015763666 6.343036277061191 12.554558611133528 0 0 0
322 1 14.16944682061667 7.908304500502781 14.132321664268675 0 0 0
323 1 15.73474806585151 6.343020380179253 12.554593205540872 0 0 0
324 1 17.300027867266362 7.908299882879211 14.13234588866387 0 0 0
909 1 12.604323729510769 18.865325997376292 -0.04212452874359109 0 0 0
326 1 1.6472783922640795 11.038889438763693 14.132230600629972 0 0 0
327 1 3.2125344027703853 9.47361085452525 12.554507316105322 0 0 0
328 1 4.7777890777361085 11.038887123318656 14.132248163995294 0 0 0
329 1 6.343055333142259 9.473606551016037 12.554532147791617 0 0 0
330 1 7.90831804955514 11.038886407563165 14.13228516246136 0 0 0
331 1 9.473590482577054 9.473597146072068 12.554585125961447 0 0 0
332 1 11.038861888799092 11.038875646950768 14.132343215910579 0 0 0
333 1 12.604153825658631 9.47358647351902 12.554643792815302 0 0 0
334 1 14.169436454107393 11.038867232325115 14.132397146944683 0 0 0
335 1 15.734731830380584 9.47357311246515 12.554694346662384 0 0 0
336 1 17.300020199481185 11.038859720794852 14.132434880651724 0 0 0
169 1 0.08201257630437198 6.343082077869642 6.243478633991624 0 0 0
338 1 1.6472786855426158 14.169454598179072 14.132249044308672 0 0 0
339 1 3.212526486305387 12.604166616077446 12.554527619546636 0 0 0
340 1 4.777782387175838 14.169459698770721 14.132265363826713 0 0 0
341 1 6.343033720448918 12.604171301310176 12.554574401135483 0 0 0
342 1 7.908297945028705 14.16945736075354 14.132324505386162 0 0 0
343 1 9.473576418046138 12.604159866458385 12.554643356692562 0 0 0
344 1 11.038857412234925 14.169448005084911 14.13239605680985 0 0 0
345 1 12.604145945870293 12.604137896962783 12.554723136121046 0 0 0
346 1 14.169432385062281 14.169432721119092 14.13246664402802 0 0 0
347 1 15.734717200456716 12.604136150132954 12.554786072003507 0 0 0
348 1 17.300015566934448 14.169436850782597 14.132518472501003 0 0 0
349 1 0.08202742896513818 15.734748731609711 12.554546483702483 0 0 0
350 1 1.6472789662179528 17.300034886049986 14.132271696653168 0 0 0
351 1 3.2125306338353563 15.73474852202445 12.554545581490942 0 0 0
352 1 4.777783215229461 17.300039243547353 14.132276207522764 0 0 0
353 1 6.3430279503918205 15.734744407839049 12.55460095254837 0 0 0
354 1 7.908305648487133 17.300036328168115 14.132334726665222 0 0 0
355 1 9.473572887502392 15.734728156231787 12.554686465820598 0 0 0
356 1 11.038861375159938 17.300024741455655 14.132420350897819 0 0 0
357 1 12.604135397837016 15.734719596837653 12.554780017377382 0 0 0
358 1 14.169428825390305 17.300030943927986 14.132502953720113 0 0 0
359 1 15.734709570691935 15.734719610794937 12.554854529526308 0 0 0
360 1 17.300013541707955 17.300027715597462 14.132558605349871 0 0 0
432 1 17.300012399932598 17.300032296600357 17.287878710458713 0 0 0
362 1 1.6472777207153628 1.6472724799275165 17.287651134755002 0 0 0
431 1 15.7347228580679 15.734731461350085 15.71018456059807 0 0 0
364 1 4.777825727637821 1.6472713357113944 17.28765052577122 0 0 0
430 1 14.169429941439454 17.300032567056117 17.287838946943438 0 0 0
366 1 7.908374939992024 1.6472702867798437 17.287648471035677 0 0 0
429 1 12.604143729944319 15.734735750228344 15.710125411742826 0 0 0
368 1 11.03892631954329 1.6472667602158355 17.28764539131712 0 0 0
428 1 11.038864422311331 17.30003837086576 17.28778494187912 0 0 0
370 1 14.169480268464744 1.6472637243744535 17.287642627238313 0 0 0
427 1 9.47358173984434 15.734748145432688 15.710059822740812 0 0 0
372 1 17.30003759613768 1.6472578653947814 17.28763939763184 0 0 0
405 1 12.604162170031504 9.473596429294043 15.710027216005226 0 0 0
374 1 1.6472777697025909 4.777811126738795 17.287653362132644 0 0 0
375 1 3.212551473264293 3.212540277189956 15.709931753176397 0 0 0
376 1 4.77782294949552 4.777809896207249 17.28765332384625 0 0 0
377 1 6.343097953260125 3.2125357121989206 15.709932117676214 0 0 0
378 1 7.908368759042855 4.777803432647606 17.287655099578483 0 0 0
379 1 9.473645971952806 3.212529101034714 15.709931055631152 0 0 0
380 1 11.03891731780288 4.777796767341053 17.287659242863157 0 0 0
381 1 12.60419596055968 3.212522527020871 15.7099314014808 0 0 0
382 1 14.169469461897997 4.777791493463969 17.287666685666142 0 0 0
383 1 15.734750492845105 3.2125132646031314 15.709935763716814 0 0 0
384 1 17.300031821671993 4.777785320021576 17.287678213271658 0 0 0
404 1 11.038884731642499 11.038885498548236 17.28772892720567 0 0 0
386 1 1.6472778590987824 7.90835489356134 17.28765669362025 0 0 0
387 1 3.212547472646691 6.343077846317153 15.709936555528797 0 0 0
388 1 4.7778174208056905 7.908349610792383 17.287660066189115 0 0 0
389 1 6.343087905010897 6.343069537213471 15.709941906420388 0 0 0
390 1 7.908358263843376 7.908341038920613 17.287670726831863 0 0 0
391 1 9.473629631653347 6.343058908726216 15.709952828527278 0 0 0
392 1 11.038902854811285 7.908332689900261 17.28768857162111 0 0 0
393 1 12.604177648594879 6.343051687745915 15.709971069760526 0 0 0
394 1 14.169457246973801 7.908326399713503 17.287711028651543 0 0 0
395 1 15.734744295532986 6.343046334473182 15.709987771500439 0 0 0
396 1 17.300026780108755 7.908318710251296 17.287725759637894 0 0 0
397 1 0.08201401255912988 9.473619657328026 15.709944799736284 0 0 0
398 1 1.6472779844848269 11.038902731371053 17.287661702080797 0 0 0
399 1 3.2125421168788995 9.473619917575297 15.709944517072508 0 0 0
400 1 4.777809492076547 11.038898160553362 17.28767005581052 0 0 0
401 1 6.343072192844744 9.473612445442287 15.709959697175574 0 0 0
402 1 7.9083435097996775 11.038891326736625 17.287694281303658 0 0 0
403 1 9.47360806269488 9.473604817155412 15.70999125903758 0 0 0
337 1 0.08203117272230381 12.604166550253646 12.554528401343635 0 0 0
1053 1 12.604158146231924 18.86532599877772 6.24399534261884 0 0 0
973 1 0.08200303173342541 18.865325999832265 3.0849681870308148 0 0 0
253 1 0.08202603160516024 9.473613886862426 9.399057638946788 0 0 0
983 1 15.734807001155986 18.865325997309665 3.0857240090899642 0 0 0
313 1 0.08201306621615766 6.343071677167525 12.554495167406206 0 0 0
373 1 0.08200408491240149 3.212540208967265 15.709931844198717 0 0 0
385 1 0.08200831702628655 6.3430776673299665 15.709936741710536 0 0 0
1121 1 6.343020189248752 18.865325999935873 9.399200827758973 0 0 0
277 1 0.08203393838526961 15.734747014783107 9.399114310137293 0 0 0
157 1 0.08200248753776407 3.212540928109583 6.243477418385578 0 0 0
981 1 12.604251222233064 18.8653259981359 3.085436927877938 0 0 0
1861 1 18.865319597776804 15.734915518922817 -0.042026319368893526 0 0 0
2173 1 18.86531701503714 3.212499444529483 15.70994643773827 0 0 0
1123 1 9.473561504123293 18.865325999666982 9.39932645350446 0 0 0
1127 1 15.734670179999126 18.86532599903016 9.399606691904125 0 0 0
229 1 0.08200417396585635 3.2125374741070267 9.399038025670187 0 0 0
2053 1 18.865297661060836 9.473583409437683 9.39932701239651 0 0 0
1981 1 18.865298210306918 9.473597529287439 6.243843626165313 0 0 0
301 1 0.08200519104045156 3.2125376645993113 12.554489193416934 0 0 0
1933 1 18.86531187424709 15.734770501840071 3.0857295742983815 0 0 0
1195 1 9.473565395622503 18.865325999930874 12.554703720151752 0 0 0
1969 1 18.865319032017908 6.343099991396894 6.243639401588593 0 0 0
241 1 0.08201470351840356 6.34307057251051 9.399042170518602 0 0 0
977 1 6.343113178477352 18.86532599948668 3.0850556986468103 0 0 0
979 1 9.473655273207102 18.865325998898193 3.085239987535187 0 0 0
1045 1 0.08202742630672005 18.86532599996803 6.2435733785142205 0 0 0
1047 1 3.2125333509734086 18.86532599996925 6.24357172079791 0 0 0
1049 1 6.343059440601426 18.865325999715758 6.2436652194099125 0 0 0
1271 1 15.734720393926281 18.865325999887258 15.710201952908331 0 0 0
2917 1 18.865289852665423 18.865325998828713 9.39969735590242 0 0 0
975 1 3.2125582677242384 18.86532599983366 3.084965848767069 0 0 0
907 1 9.473798904561445 18.86532599852718 -0.04234743910010421 0 0 0
1199 1 15.734704123240656 18.865325999635534 12.5548880191031 0 0 0
1051 1 9.473584185839453 18.865325999297674 6.243834414065382 0 0 0
2653 1 18.865325404443997 15.734770803000309 34.64576249424035 0 0 0