LAMMPS data file via write_data, version 2 Aug 2023, timestep = 778, units = metal

3601 atoms
3 atom types

0.08173606972060314 37.648915930279486 xlo xhi
0.08148663637188713 37.64916536362817 ylo yhi
-15.830483186332506 53.56113518633249 zlo zhi

Masses

1 183.84
2 1.008
3 4.0026

Atoms # atomic

2209 1 18.864873143387776 12.602726404623564 15.711694524989078 0 0 0
2 1 1.6469467100998298 1.6467753494320612 1.5278379587053286 0 0 0
2185 1 18.865221527510162 6.342242164991993 15.710409500151977 0 0 0
4 1 4.777366859496929 1.6467549473534921 1.5277929952699427 0 0 0
1801 1 18.865175158896598 0.08148663860950205 -0.04299213449669135 0 0 0
6 1 7.907812253374087 1.646715472749835 1.5277525459449761 0 0 0
1897 1 18.86504827105835 6.3415913880308 3.084006951116403 0 0 0
8 1 11.0383119325552 1.646641526250516 1.5277342528250288 0 0 0
1885 1 18.86511952350406 3.211545246353137 3.084653502361358 0 0 0
10 1 14.16895233784922 1.6465428654224543 1.5277361959889513 0 0 0
426 1 7.908138089182607 17.299988715590548 17.28784285640296 0 0 0
12 1 17.29972995481656 1.6464676166788939 1.5277798139113772 0 0 0
371 1 15.734577144494795 0.0814866370303804 15.710195547361366 0 0 0
14 1 1.6469561086753572 4.777352318372818 1.5278772609391524 0 0 0
15 1 3.2121300991535002 3.2120655944168943 -0.04291442398709827 0 0 0
16 1 4.777344066985791 4.7773046534655625 1.5278222085755213 0 0 0
17 1 6.342549456989021 3.212009493508614 -0.042972518681018645 0 0 0
18 1 7.907761973516947 4.777194562969032 1.5277491226262998 0 0 0
19 1 9.473012175828451 3.211876315193352 -0.043048462788043605 0 0 0
20 1 11.03823579617995 4.776973495169908 1.5276280797204018 0 0 0
21 1 12.603585778605067 3.2116264839288906 -0.04313722993219894 0 0 0
22 1 14.16883309291664 4.776655674416505 1.5274869457013223 0 0 0
23 1 15.734312070030535 3.2113532856881823 -0.04318654425860578 0 0 0
24 1 17.299635284817807 4.776412205946233 1.527424949787101 0 0 0
25 1 0.08177974381507856 6.342653800560928 -0.042823411774504036 0 0 0
26 1 1.6469985248997334 7.907939376004487 1.5279493885179036 0 0 0
27 1 3.212127869421252 6.342653866519689 -0.0428611440892718 0 0 0
28 1 4.7773304559108745 7.907882293964215 1.527887888641176 0 0 0
29 1 6.342473802261033 6.342550048408937 -0.04296139479601898 0 0 0
30 1 7.907670432909613 7.907721613366916 1.5277250101615096 0 0 0
31 1 9.472848411262081 6.342300565191209 -0.04314297583939138 0 0 0
32 1 11.038027920158498 7.907367066870391 1.5273723982636507 0 0 0
33 1 12.603318874465002 6.34178424694036 -0.04345254361940177 0 0 0
34 1 14.16849126572285 7.9067767159080296 1.5268212114896298 0 0 0
35 1 15.734063623656263 6.341204919648719 -0.04370447710650749 0 0 0
36 1 17.29939150229842 7.906333600057961 1.5264798886740465 0 0 0
37 1 0.08193086853145883 9.473260015069215 -0.0427858082866759 0 0 0
38 1 1.6471059398476264 11.038558733338196 1.5280496951605766 0 0 0
39 1 3.2121653111513515 9.473278336276886 -0.04278713432214798 0 0 0
40 1 4.777362150308545 11.038533684051599 1.5279794000679712 0 0 0
41 1 6.342369068078313 9.473164580002626 -0.042929565611397345 0 0 0
42 1 7.907581313199275 11.038364511631668 1.5277244123973845 0 0 0
43 1 9.472528905211847 9.472841975769771 -0.0432945181933445 0 0 0
44 1 11.037716419924484 11.037923526502382 1.527039633843967 0 0 0
45 1 12.602723698199558 9.472100632230182 -0.04404673100102477 0 0 0
46 1 14.167834531708204 11.037005737237982 1.5256062179351773 0 0 0
47 1 15.733489183471216 9.471108317884589 -0.04478051657172085 0 0 0
48 1 17.29883518464068 11.036306482077308 1.5245524117669915 0 0 0
2089 1 18.865253747838587 0.08148663744319862 12.554694421419695 0 0 0
50 1 1.647248276863578 14.16923824213864 1.5281366108855428 0 0 0
51 1 3.2122690447383357 12.603945933805345 -0.04269571159640362 0 0 0
52 1 4.777433761139435 14.169247461937518 1.5280927992803892 0 0 0
53 1 6.342332976457649 12.603874026609404 -0.04285757037378199 0 0 0
54 1 7.907605412982923 14.169144788970545 1.5277851011738546 0 0 0
55 1 9.47229459987059 12.603620907960977 -0.04333541790492301 0 0 0
56 1 11.037715016507097 14.16888487198442 1.526996094752647 0 0 0
57 1 12.602145115094949 12.603026739528232 -0.04440632791283161 0 0 0
58 1 14.167766519870634 14.168233784112624 1.5251798694865286 0 0 0
59 1 15.732276741132043 12.601579703815911 -0.04661167324734106 0 0 0
60 1 17.297731919953993 14.166537534126805 1.5213409348616223 0 0 0
425 1 6.342884490516547 15.734671303090868 15.710041479627513 0 0 0
62 1 1.647341169265599 17.299958467457696 1.5281884355945932 0 0 0
63 1 3.212375517566896 15.734629819821068 -0.042621683708886915 0 0 0
64 1 4.777501069594925 17.299968482527635 1.528144445460764 0 0 0
65 1 6.342389413491841 15.734600589003495 -0.04279275483824322 0 0 0
66 1 7.907682352986753 17.299934310915052 1.5278251955729298 0 0 0
67 1 9.472313914413796 15.73448927546049 -0.04330034805863348 0 0 0
68 1 11.037842983829405 17.299867105719084 1.5270471613584413 0 0 0
69 1 12.60207916638902 15.734230585102722 -0.04440296093141163 0 0 0
70 1 14.168061589537372 17.299678483947723 1.525310324721982 0 0 0
71 1 15.73193837150501 15.733664136257623 -0.04660664362042812 0 0 0
72 1 17.29868988242533 17.2993634982293 1.5217127935048576 0 0 0
424 1 4.777629137870461 17.300001849577498 17.287766464425335 0 0 0
74 1 1.6469595100843426 1.6467737112401233 4.666432894414008 0 0 0
423 1 3.2123513260087595 15.734684760719343 15.71002233463245 0 0 0
76 1 4.777401757790654 1.6467601864059878 4.666412283097026 0 0 0
133 1 0.082048998322513 15.734588150118206 3.0850402171640865 0 0 0
78 1 7.90785861671062 1.6467325410038125 4.66636935766339 0 0 0
61 1 0.08243869133573156 15.734588221704763 -0.042737078349487874 0 0 0
80 1 11.038384292943288 1.646683845226912 4.666349892783801 0 0 0
2125 1 18.86505259140713 9.471967113072694 12.555107693528397 0 0 0
82 1 14.169013167057969 1.6466258195919632 4.666352429371721 0 0 0
85 1 0.08174281148816802 3.2120581111182815 3.0848531532649175 0 0 0
84 1 17.29976038834443 1.646576540931359 4.666373732955095 0 0 0
422 1 1.647117792337161 17.29999709250704 17.287782558625473 0 0 0
86 1 1.6469595180970835 4.777355093915949 4.666465665048192 0 0 0
87 1 3.2121669047230275 3.2120435524656257 3.0848062824716678 0 0 0
88 1 4.777399379641297 4.777318830377273 4.666415495353063 0 0 0
89 1 6.342593177098384 3.2120016228919104 3.0847552095896495 0 0 0
90 1 7.907860746769155 4.7772409186805405 4.666355940490737 0 0 0
91 1 9.473062978341126 3.211909583533393 3.084716881990464 0 0 0
92 1 11.038365104026063 4.777094596217958 4.66628081452237 0 0 0
93 1 12.60361226576655 3.211770068987547 3.084661616392622 0 0 0
94 1 14.168952981784653 4.776905764230768 4.666153175893711 0 0 0
95 1 15.734299190232809 3.211623225955101 3.0846298799274687 0 0 0
96 1 17.29969507566728 4.776720754286143 4.666059521139832 0 0 0
2113 1 18.86519954037297 6.3420610929300105 12.554750286758434 0 0 0
98 1 1.6469806461245056 7.907945967031226 4.666525600602018 0 0 0
99 1 3.212169772049725 6.342617803702585 3.084863353718412 0 0 0
100 1 4.777418220735814 7.907914401574314 4.666453348160337 0 0 0
101 1 6.34257725341703 6.3425446227748745 3.084780358984363 0 0 0
102 1 7.907852127698903 7.907794278852652 4.666345242272152 0 0 0
103 1 9.473007825959698 6.342365676333694 3.0846413833177206 0 0 0
104 1 11.038288995355593 7.90756055317335 4.6660767288768925 0 0 0
105 1 12.603485824181544 6.342088108475869 3.0843943378695586 0 0 0
106 1 14.168761367265606 7.907150129806275 4.665662652924457 0 0 0
107 1 15.734134769331224 6.341728258914139 3.084105321947312 0 0 0
108 1 17.299486965438327 7.90664685063504 4.665252999892544 0 0 0
420 1 17.29937218107052 14.168556441612129 17.289420664002037 0 0 0
110 1 1.6470212141346343 11.038595104814274 4.66658385037659 0 0 0
111 1 3.212211978558155 9.473233709613426 3.0849428017479843 0 0 0
112 1 4.77746277206338 11.038563324350548 4.666525696708565 0 0 0
113 1 6.342577010906039 9.473140232117814 3.0848144493578915 0 0 0
114 1 7.90786276975669 11.038434155455228 4.666312522326368 0 0 0
115 1 9.47292048913853 9.472907192037036 3.084514384056307 0 0 0
116 1 11.038178592245623 11.038127678857554 4.665815491822136 0 0 0
117 1 12.603251418864067 9.472468136543306 3.0838757052660273 0 0 0
118 1 14.168390451217695 11.03742077345528 4.664834740637391 0 0 0
119 1 15.733691247110235 9.471664595777105 3.082939156615016 0 0 0
120 1 17.298723649544712 11.035852713273213 4.663403294594689 0 0 0
419 1 15.733840197852953 12.603013049437326 15.71139877563369 0 0 0
122 1 1.6470816006002091 14.169280913456058 4.666639595934928 0 0 0
123 1 3.212289203031503 12.603902914297104 3.085036004116217 0 0 0
124 1 4.777544067649867 14.169269477813945 4.666592019775628 0 0 0
125 1 6.342619153157225 12.603833141103594 3.084882391092444 0 0 0
126 1 7.907953611865419 14.169195876185679 4.666315911132223 0 0 0
127 1 9.47288441808122 12.603624464223254 3.084412083205485 0 0 0
128 1 11.038182932038323 14.1689593171096 4.665635789097786 0 0 0
129 1 12.60290844168171 12.603042020890966 3.0832567744010206 0 0 0
130 1 14.167663623584083 14.168010509980661 4.663898302262669 0 0 0
131 1 15.732496017217514 12.601371348778088 3.0805840218577307 0 0 0
132 1 17.29499448736666 14.163344961015968 4.658045612998481 0 0 0
418 1 14.168941176218437 14.169031968823097 17.28850143708334 0 0 0
134 1 1.6471271124683107 17.299973806955713 4.666670677971561 0 0 0
135 1 3.212372197054772 15.73461473232218 3.0851143094509657 0 0 0
136 1 4.77761735019778 17.29998644302245 4.6666325132394935 0 0 0
137 1 6.342706753586774 15.7345909177767 3.084946042369593 0 0 0
138 1 7.90812116701804 17.29995981082846 4.666328075105971 0 0 0
139 1 9.473063931546195 15.73450054223225 3.0844399391708506 0 0 0
140 1 11.03864638765581 17.299940683371858 4.665631346228355 0 0 0
141 1 12.603354945835013 15.734299996210332 3.083272603480095 0 0 0
142 1 14.169079857243206 17.299940843819634 4.6641797835894705 0 0 0
143 1 15.733415375776211 15.733663927553122 3.080701447694656 0 0 0
144 1 17.29860706178558 17.2996315497802 4.660700702723761 0 0 0
1909 1 18.864868175811292 9.471502012095446 3.0825357874085566 0 0 0
146 1 1.646952207198876 1.6467875490543449 7.82140742957809 0 0 0
417 1 12.603605822964411 12.603653127650135 15.710534495645794 0 0 0
148 1 4.777447652032174 1.64678730769623 7.821388923441604 0 0 0
1921 1 18.864430031088876 12.601153503615048 3.0796495601844716 0 0 0
150 1 7.907948726370641 1.646746005673021 7.821372795997241 0 0 0
1993 1 18.863521040233035 12.59843993357896 6.239532891056578 0 0 0
152 1 11.038485489589949 1.646715256038476 7.821361122354472 0 0 0
416 1 11.038538473252025 14.16922721719217 17.288070064451684 0 0 0
154 1 14.169112803865577 1.646659241917354 7.821357496450607 0 0 0
1969 1 18.86511741366427 6.341773436741658 6.242905915329405 0 0 0
156 1 17.29983448206561 1.646626756380234 7.821367091801164 0 0 0
415 1 9.473274527111386 12.603904307649161 15.710193788896982 0 0 0
158 1 1.6469551472434032 4.777400030180359 7.821416615355637 0 0 0
159 1 3.2121923107182866 3.2120763661141316 6.2435010332740415 0 0 0
160 1 4.777446342495344 4.7773767156100115 7.821389953846145 0 0 0
161 1 6.342662312185077 3.212030362886507 6.243460900375407 0 0 0
162 1 7.907938489376538 4.7772839937216505 7.821354927186589 0 0 0
163 1 9.473153225774215 3.2119622424213796 6.243430878197479 0 0 0
164 1 11.038475283534526 4.777182959603245 7.821309282277838 0 0 0
165 1 12.603724512873502 3.211864327210444 6.243397022385859 0 0 0
166 1 14.169074353299246 4.777009684458061 7.821247422278344 0 0 0
167 1 15.734400089877475 3.2117538332724602 6.2433622383707394 0 0 0
168 1 17.299771623818092 4.776859112071053 7.821189377756198 0 0 0
2101 1 18.86523980953779 3.2118398838589157 12.55468023135177 0 0 0
170 1 1.6469526266258077 7.908026071370191 7.821432582525979 0 0 0
171 1 3.2121953367029117 6.342668490646783 6.243519695221818 0 0 0
172 1 4.777458169761307 7.907975965452348 7.821397310386052 0 0 0
173 1 6.34266372582211 6.342592631061735 6.243461949458988 0 0 0
174 1 7.9079484015942985 7.907872790180006 7.82132982384292 0 0 0
175 1 9.47315477699982 6.342476676091915 6.243383082540109 0 0 0
176 1 11.03843553049177 7.907682219885039 7.821198563208024 0 0 0
177 1 12.603671655941282 6.3422626041644365 6.243224781574022 0 0 0
178 1 14.168925257874944 7.9073240208629425 7.821002442333367 0 0 0
179 1 15.73428410331577 6.341958684266134 6.2430257135445455 0 0 0
180 1 17.29957741361691 7.906818294888974 7.820815051884466 0 0 0
2137 1 18.864533371625278 12.60139799481783 12.556337518932413 0 0 0
182 1 1.6469608144335968 11.038679866842047 7.821450949542576 0 0 0
183 1 3.212217951566669 9.473290295027754 6.243560027983079 0 0 0
184 1 4.777499191208274 11.038634595919422 7.821418082448163 0 0 0
185 1 6.3426908397405715 9.473213356721395 6.2434774362539285 0 0 0
186 1 7.907986940845001 11.038528410003364 7.821295472068978 0 0 0
187 1 9.473135190803681 9.473049748260875 6.243286057602924 0 0 0
188 1 11.038380925374986 11.03825996725036 7.821045303500666 0 0 0
189 1 12.603532804732492 9.47269130886866 6.242896677154502 0 0 0
190 1 14.168616215195188 11.037592027719636 7.820658391627586 0 0 0
191 1 15.733952549625728 9.471963189507568 6.242360089777611 0 0 0
192 1 17.29888846519783 11.03609003611884 7.8202593013519195 0 0 0
205 1 0.08174461600930454 15.734655727156047 6.243586945209228 0 0 0
194 1 1.646987309492939 14.169345755190454 7.821464825066392 0 0 0
195 1 3.2122680632247778 12.603966745044357 6.243609957662136 0 0 0
196 1 4.777573346327133 14.169333008806914 7.821438813766323 0 0 0
197 1 6.342762882602674 12.603910842360957 6.243498074898823 0 0 0
198 1 7.908095812359567 14.169255295685302 7.821265816680906 0 0 0
199 1 9.473160617588087 12.60374282196113 6.24318335719585 0 0 0
200 1 11.038414098525024 14.169033332215557 7.820905534817627 0 0 0
201 1 12.603325272645005 12.603254362181499 6.242522049778957 0 0 0
202 1 14.168086535875515 14.168080782719535 7.820347379769813 0 0 0
203 1 15.733166015453167 12.601859848717293 6.241285090452042 0 0 0
204 1 17.29690917429332 14.164610815181529 7.819681255608111 0 0 0
1873 1 18.865153063846044 0.08148663836357296 3.084829113241526 0 0 0
206 1 1.647004288821299 17.30000576202155 7.821470939096909 0 0 0
207 1 3.212323494389995 15.734657072459623 6.243646646092197 0 0 0
208 1 4.777639884132568 17.300001467979556 7.821455550478301 0 0 0
209 1 6.342877031636516 15.734642671346336 6.243517083079092 0 0 0
210 1 7.908274165937868 17.30000684301218 7.821251102124049 0 0 0
211 1 9.473360507993165 15.734589318811135 6.243152951603778 0 0 0
212 1 11.038883431937192 17.30001144557103 7.820832680205586 0 0 0
213 1 12.603476342786015 15.734352670382565 6.2423685782894855 0 0 0
214 1 14.16927667423051 17.299864527872476 7.8201731789906965 0 0 0
215 1 15.731588339186743 15.732699562545431 6.240282309046976 0 0 0
216 1 17.297998710837696 17.296633036911206 7.819345820688311 0 0 0
1849 1 18.864001189772708 12.600303990562075 -0.04767156352123031 0 0 0
218 1 1.6469608816556947 1.6468040992700568 10.976830628967742 0 0 0
421 1 0.08183375340598076 15.734669108355886 15.710059229109604 0 0 0
220 1 4.777476933263042 1.6467881907647044 10.976820794492498 0 0 0
1933 1 18.862661095088903 15.730608836967246 3.07376141176616 0 0 0
222 1 7.907998335483697 1.646768315419368 10.976840544985082 0 0 0
361 1 0.08173823240560552 0.0814866367190512 15.710002942696091 0 0 0
224 1 11.038554465210641 1.646730335611102 10.97685927290457 0 0 0
2065 1 18.86345839694183 12.59843893169297 9.399766246409763 0 0 0
226 1 14.169178304081827 1.6466886516656147 10.976883591133097 0 0 0
151 1 9.473165287736908 0.08148663747247298 6.2434477705667755 0 0 0
228 1 17.29987628290285 1.6466523399195485 10.976905555149528 0 0 0
414 1 7.908093904636998 14.169312375394695 17.287854351499956 0 0 0
230 1 1.646954071206645 4.777436207388413 10.976827193634996 0 0 0
231 1 3.2122108689825484 3.212106573210416 9.399091895657943 0 0 0
232 1 4.777479692143078 4.777398052476366 10.976828518669743 0 0 0
233 1 6.342718824270632 3.2120616783919775 9.399086296870834 0 0 0
234 1 7.908007182403693 4.777335911739263 10.976832599846901 0 0 0
235 1 9.473242854104235 3.212003747405102 9.399073701289577 0 0 0
236 1 11.03854042695168 4.777224656304123 10.976839317633516 0 0 0
237 1 12.603818020616268 3.2119141166015757 9.39906821804136 0 0 0
238 1 14.169126301566244 4.777069723851336 10.976858673884967 0 0 0
239 1 15.734476866203428 3.211815034867517 9.39907053827521 0 0 0
240 1 17.299827213272938 4.776919207219537 10.976861799311461 0 0 0
413 1 6.342826169257958 12.603999518034465 15.710061329029806 0 0 0
242 1 1.6469518499697449 7.908062924980877 10.976825934957702 0 0 0
243 1 3.2122108989256724 6.342723368111011 9.399098805209658 0 0 0
244 1 4.777492919049409 7.908023234115667 10.97682776463842 0 0 0
245 1 6.342724773925624 6.342651409231 9.399074780722248 0 0 0
246 1 7.9080030998009025 7.907927429304162 10.976812045522207 0 0 0
247 1 9.473237871711968 6.342542643533176 9.399033156652957 0 0 0
248 1 11.038469976461691 7.907732541728506 10.976817765888503 0 0 0
249 1 12.603764928077005 6.342347070897123 9.398992186701262 0 0 0
250 1 14.168951951266148 7.907368856813451 10.97686117697286 0 0 0
251 1 15.734366158465692 6.342058486037331 9.398948439222796 0 0 0
252 1 17.299630948032668 7.906885129326241 10.976930287998888 0 0 0
1813 1 18.865146756923064 3.211201664817346 -0.04317996395855471 0 0 0
254 1 1.646960209463176 11.038716063735043 10.97683074576007 0 0 0
255 1 3.212225369861662 9.473356659884592 9.399105761814036 0 0 0
256 1 4.777521127926522 11.03868034863941 10.976824019837636 0 0 0
257 1 6.342743988786432 9.473282816407165 9.399063165042373 0 0 0
258 1 7.908009296119594 11.038575891240333 10.976797779251863 0 0 0
259 1 9.47321443232188 9.473133579354759 9.39898357447404 0 0 0
260 1 11.038369480339194 11.038309010676336 10.97679975529101 0 0 0
261 1 12.603618540667004 9.472782556773526 9.398893043541312 0 0 0
262 1 14.168558123999944 11.03762156814655 10.976984695822157 0 0 0
263 1 15.734022298792432 9.47205683977323 9.398840902402155 0 0 0
264 1 17.298821029508883 11.036017717555291 10.977632976236674 0 0 0
412 1 4.777602439681576 14.169346070426423 17.287776318735272 0 0 0
266 1 1.6469823751416544 14.169376492494907 10.976830029657528 0 0 0
267 1 3.212256067266274 12.604027775841619 9.399117285461195 0 0 0
268 1 4.777580141562954 14.169361142035585 10.976825697424855 0 0 0
269 1 6.342801433034166 12.603974718768 9.399060422873362 0 0 0
270 1 7.90810174044835 14.169303828303294 10.976760186104007 0 0 0
271 1 9.473239170970631 12.603813304414667 9.398927834398453 0 0 0
272 1 11.038367058438315 14.169103495044446 10.976742117439779 0 0 0
273 1 12.603398927060391 12.603331695752386 9.398800017230075 0 0 0
274 1 14.167755029893462 14.168165708033667 10.97734561343822 0 0 0
275 1 15.733181325229104 12.601915987645057 9.398963495204852 0 0 0
276 1 17.294908636282358 14.163393287880274 10.98180227686407 0 0 0
411 1 3.212320499335278 12.604030452859366 15.710021079885825 0 0 0
278 1 1.6470076330955643 17.30001366874108 10.976831326196645 0 0 0
279 1 3.2123004540122344 15.73469156870726 9.399128021086712 0 0 0
280 1 4.777645955340745 17.300014846662506 10.976822239716064 0 0 0
281 1 6.342915742628084 15.734673336716433 9.39904890780762 0 0 0
282 1 7.908258027856741 17.30000294765111 10.976729767914199 0 0 0
283 1 9.473428728517415 15.73462664846758 9.398846724560967 0 0 0
284 1 11.038793542172938 17.299998570301796 10.976618678592692 0 0 0
285 1 12.6035082131527 15.734393430799123 9.398607445005437 0 0 0
286 1 14.16908272024588 17.299993383203848 10.976720423117579 0 0 0
287 1 15.731524391552682 15.732700770941047 9.399236356481051 0 0 0
288 1 17.298350988321026 17.299600581807542 10.97831778292922 0 0 0
410 1 1.6471035810104566 14.169339708961218 17.28777609445354 0 0 0
290 1 1.6469813985891426 1.6468028489314286 14.132276260900351 0 0 0
409 1 0.08180586640576404 12.60400814523397 15.710046971844056 0 0 0
292 1 4.777495104414951 1.646786105771803 14.132299642619524 0 0 0
408 1 17.2996418547307 11.03793993881417 17.288752424184988 0 0 0
294 1 7.908022493264615 1.6467708100089367 14.132323776477703 0 0 0
2149 1 18.862358915042797 15.730605510869564 12.560640834316144 0 0 0
296 1 11.038582171440797 1.646738288671599 14.132375868954249 0 0 0
121 1 0.08194734075116197 12.603881639561493 3.085016071865795 0 0 0
298 1 14.169217380298383 1.6466979424251955 14.132427472584823 0 0 0
407 1 15.73426735951917 9.472625524626107 15.710715499602914 0 0 0
300 1 17.299906981500254 1.646685443197458 14.132455603308964 0 0 0
2005 1 18.850398773560574 15.717613093259489 6.22460655394014 0 0 0
302 1 1.6469802223859327 4.777431825052284 14.1322785531098 0 0 0
303 1 3.2122255514353104 3.2121051619532612 12.554549581787434 0 0 0
304 1 4.777499524460109 4.777394030526135 14.132287936598711 0 0 0
305 1 6.342748732868102 3.2120783050258708 12.554572039558957 0 0 0
306 1 7.908025735876006 4.777346453596516 14.132336572371901 0 0 0
307 1 9.473289084273762 3.2120239383124973 12.554601037086012 0 0 0
308 1 11.038563316604602 4.777243049806917 14.132414180824279 0 0 0
309 1 12.603863723927702 3.211944246062259 12.554643781077065 0 0 0
310 1 14.169163147121933 4.777104911816751 14.132485171993435 0 0 0
311 1 15.734520007125601 3.2118585742184718 12.554676941303205 0 0 0
312 1 17.299861668141364 4.777042459164275 14.132514425070509 0 0 0
406 1 14.168901740603724 11.038156541358092 17.28850577273923 0 0 0
314 1 1.6469863332278551 7.908062158691062 14.13227848931453 0 0 0
315 1 3.212230336656814 6.342732599268042 12.554546992662202 0 0 0
316 1 4.777510595544229 7.908021403657228 14.13228921390689 0 0 0
317 1 6.342759300735854 6.342681721878856 12.55456537942836 0 0 0
318 1 7.908013669652027 7.907940255628427 14.13235377633737 0 0 0
319 1 9.473272656304056 6.342570786179467 12.554607341135084 0 0 0
320 1 11.038481835440855 7.90775816486927 14.132474571235864 0 0 0
321 1 12.603785591335264 6.342385478205011 12.554670701320985 0 0 0
322 1 14.168960962361046 7.907423375358945 14.132682403908344 0 0 0
323 1 15.734400064486817 6.342122591047851 12.554750819840354 0 0 0
324 1 17.299737544421824 7.907264760705386 14.132746057842391 0 0 0
49 1 0.0821965468686301 12.603888890865006 -0.04275474366683501 0 0 0
326 1 1.6470090494426315 11.038708660837575 14.132278703469392 0 0 0
327 1 3.2122472768823847 9.473377766702988 12.554550805011239 0 0 0
328 1 4.777544185480856 11.038686527929075 14.132296465758646 0 0 0
329 1 6.34277259514395 9.473311983809939 12.554565527868032 0 0 0
330 1 7.908019806652557 11.038598072438582 14.132356999541264 0 0 0
331 1 9.473223987936013 9.473159752918239 12.554612846013503 0 0 0
332 1 11.038337575249635 11.038340062321026 14.132573161274948 0 0 0
333 1 12.603591868714224 9.472814101122477 12.554758974773193 0 0 0
334 1 14.168515677298052 11.037701517918002 14.13314729589858 0 0 0
335 1 15.733991922010885 9.472087113917334 12.555133798386962 0 0 0
336 1 17.299392971018875 11.03730782353938 14.133393214161675 0 0 0
73 1 0.08174335671793957 0.08148663715662252 3.0848258829525514 0 0 0
338 1 1.6470429612224717 14.169362555847744 14.132285797815891 0 0 0
339 1 3.2122798540520026 12.604039745004528 12.554553582531094 0 0 0
340 1 4.777597685220844 14.169361918730003 14.132285889388541 0 0 0
341 1 6.3428165958272675 12.60399546366409 12.554554154759574 0 0 0
342 1 7.908107808682598 14.169312577339376 14.132321166412835 0 0 0
343 1 9.473217185867602 12.60385502725985 12.554600008994859 0 0 0
344 1 11.038489245544305 14.169190625100637 14.132472264957928 0 0 0
345 1 12.603258293191288 12.603361486236228 12.554958590466903 0 0 0
346 1 14.16862466844376 14.168784737988776 14.133051161445065 0 0 0
347 1 15.732738081390046 12.601706220159066 12.556452771300913 0 0 0
348 1 17.298414530938633 14.167355445415266 14.135094842431016 0 0 0
83 1 15.734348723760652 0.08148663814544932 3.0847674644876264 0 0 0
350 1 1.647062935795405 17.300006937987497 14.132289296218381 0 0 0
351 1 3.2123215131504703 15.734696028402624 12.5545567612576 0 0 0
352 1 4.777638097757804 17.30000950226815 14.132281634414124 0 0 0
353 1 6.342907893903587 15.734682666714916 12.554530910648532 0 0 0
354 1 7.908193371217894 17.300000813126054 14.13229598986917 0 0 0
355 1 9.473413758444938 15.73464001194141 12.554521747227604 0 0 0
356 1 11.038658337448538 17.299966927892974 14.132412796891938 0 0 0
357 1 12.603703717437915 15.734519385018181 12.55468144537406 0 0 0
358 1 14.168998849748949 17.299874483579885 14.13285572212265 0 0 0
359 1 15.7334982108871 15.733911699796185 12.555647779591737 0 0 0
360 1 17.29931268501056 17.299738090918744 14.134090919190417 0 0 0
432 1 17.299514625656585 17.29977627267744 17.28931840730737 0 0 0
362 1 1.6470082620175706 1.646792575169016 17.287758471758487 0 0 0
431 1 15.73408906967981 15.734294389727616 15.7111751895343 0 0 0
364 1 4.77751996120008 1.6467870726087552 17.287787881717595 0 0 0
430 1 14.169030162900237 17.299902715754694 17.288466845584203 0 0 0
366 1 7.908042290194382 1.6467668711107872 17.28782474692988 0 0 0
429 1 12.603764520581992 15.7345310193085 15.71043972410101 0 0 0
368 1 11.038608696472053 1.6467441996450207 17.287873292857366 0 0 0
428 1 11.038606754705429 17.299966385498987 17.288040775807637 0 0 0
370 1 14.169239391562131 1.646714031747666 17.287931712545614 0 0 0
427 1 9.473371271338486 15.734635708331526 15.710150469021176 0 0 0
372 1 17.299923749788732 1.6466991132068391 17.287966013631426 0 0 0
405 1 12.603632479038442 9.472894272232015 15.710492557507196 0 0 0
374 1 1.6470157874371705 4.777409446828181 17.287755490897673 0 0 0
375 1 3.2122517232758083 3.212100818130468 15.710022268356939 0 0 0
376 1 4.7775165579526515 4.777386502716746 17.28778210550553 0 0 0
377 1 6.342767059147298 3.2120731865915 15.710054456499563 0 0 0
378 1 7.908033513243091 4.7773406739974815 17.287840584781982 0 0 0
379 1 9.473299979076229 3.212025732570261 15.71011807083276 0 0 0
380 1 11.03858672409116 4.777264466928049 17.28793338024044 0 0 0
381 1 12.603895650856597 3.2119547503907326 15.710185650598138 0 0 0
382 1 14.16920891863782 4.777175396189369 17.288020980327406 0 0 0
383 1 15.734554749459825 3.211907949509011 15.710234844963466 0 0 0
384 1 17.29989344051424 4.7771277093180915 17.288055989170775 0 0 0
404 1 11.03848111404261 11.038469313719164 17.288094270380657 0 0 0
386 1 1.6470387083550613 7.9080374041048485 17.287764065207067 0 0 0
387 1 3.212256675154555 6.342716754476376 15.710013443763334 0 0 0
388 1 4.777532112163194 7.908006678966945 17.28777333040702 0 0 0
389 1 6.342762377303307 6.34267198249268 15.710060980461733 0 0 0
390 1 7.9080241181417135 7.907947288564194 17.287864366429552 0 0 0
391 1 9.473277714631754 6.342581899127211 15.710158305947003 0 0 0
392 1 11.038515311004382 7.90780550061453 17.288034868587573 0 0 0
393 1 12.603818289436944 6.3424167644865 15.710292300285813 0 0 0
394 1 14.169100793584432 7.907636081547113 17.288201685318242 0 0 0
395 1 15.73447650562014 6.342296851463649 15.710375569776675 0 0 0
396 1 17.299812167526532 7.907526904738989 17.28830442968011 0 0 0
397 1 0.08177006805161403 9.473368491228062 15.710037514804986 0 0 0
398 1 1.6470724311828688 11.038685760633452 17.287773341675404 0 0 0
399 1 3.212282863880269 9.473361359993397 15.710016096302079 0 0 0
400 1 4.777560816797413 11.038669254195229 17.28777349748305 0 0 0
401 1 6.342778794383 9.473313003610052 15.710066785504974 0 0 0
402 1 7.908040487709061 11.03861324322669 17.287875622648606 0 0 0
403 1 9.473230975040723 9.473184040363492 15.710212554232065 0 0 0
373 1 0.08174090454331662 3.2121091388010226 15.71001289663721 0 0 0
1981 1 18.86488260018505 9.471218330654287 6.241926184502697 0 0 0
2197 1 18.865112753095545 9.472497619778219 15.7108196943165 0 0 0
1957 1 18.865171652360633 3.211709959762554 6.243359025183027 0 0 0
363 1 3.2122495403236067 0.08148663673688021 15.710029839165102 0 0 0
2041 1 18.86516083015427 6.341867069222986 9.398903750028774 0 0 0
2029 1 18.865211951004817 3.2117732859728414 9.39906256699631 0 0 0
97 1 0.08177603016014591 6.342631146127814 3.0849056180870496 0 0 0
109 1 0.08183910694155236 9.473223642207444 3.084974876199724 0 0 0
2221 1 18.864388114798523 15.73337915531688 15.713148190254595 0 0 0
385 1 0.08174464689775363 6.3427371967055075 15.71002294752848 0 0 0
291 1 3.212233624834955 0.08148663682359228 12.554549067208935 0 0 0
1825 1 18.865031397688643 6.340820255482069 -0.043814244356137184 0 0 0
227 1 15.734503306906687 0.08148663765613406 9.399112390849155 0 0 0
2161 1 18.86526598937115 0.08148663709224024 15.710217530980907 0 0 0
2077 1 18.850229340340963 15.717561958678766 9.413414431066588 0 0 0
1861 1 18.86253327561475 15.731613856263973 -0.051196091141993985 0 0 0
2053 1 18.86490564503195 9.47128464427964 9.398795743748602 0 0 0
1837 1 18.864728421826523 9.470385734065905 -0.04517981270900002 0 0 0
9 1 12.603646877066746 0.08148663800103029 -0.04304119454267879 0 0 0
2173 1 18.865252994796627 3.2118941473381604 15.710244302669913 0 0 0
2017 1 18.86522828584098 0.08148663777600781 9.399137788518368 0 0 0
149 1 6.342665632206519 0.0814866372419741 6.243473613429552 0 0 0
11 1 15.734369971314855 0.08148663842180796 -0.04302776672464359 0 0 0
79 1 9.473068838918628 0.0814866377171839 3.0847496675568156 0 0 0
147 1 3.212184503929581 0.08148663710294102 6.243500568916151 0 0 0
1945 1 18.86519877284544 0.081486638070011 6.243484243487945 0 0 0
77 1 6.3426012210363 0.08148663745375018 3.084755830383889 0 0 0
153 1 12.60373551138802 0.08148663772696096 6.243443124716447 0 0 0
219 1 3.212205044780966 0.08148663694836245 9.399084323883118 0 0 0
223 1 9.473249646591299 0.08148663722644045 9.399088437551633 0 0 0
75 1 3.2121732000895613 0.08148663723245875 3.0847902206924145 0 0 0
5 1 6.342581199643441 0.0814866375315404 -0.042980695305137546 0 0 0
155 1 15.73442916014352 0.0814866380080872 6.243459103194195 0 0 0
81 1 12.603649517802097 0.08148663798644407 3.0847347568241394 0 0 0
7 1 9.473061244643763 0.08148663778798948 -0.043019194350836745 0 0 0