LAMMPS data file via write_data, version 2 Aug 2023, timestep = 1569, units = metal

3601 atoms
3 atom types

0.08142264183700998 37.64922935816293 xlo xhi
0.08141133082769884 37.64924066917234 ylo yhi
-15.829678500424674 53.56033050042476 zlo zhi

Masses

1 183.84
2 1.008
3 4.0026

Atoms # atomic

73 1 0.0815216744650928 0.08141133182869709 3.0850196583730214 0 0 0
2 1 1.646750281455599 1.6466674229192733 1.5280492857493175 0 0 0
2185 1 18.865285353230274 6.34235550327518 15.710182183708044 0 0 0
4 1 4.777198797412822 1.6466580341779267 1.5280286929092128 0 0 0
421 1 0.08158655683422467 15.734569483304 15.710348051365537 0 0 0
6 1 7.907688704060036 1.646617289882071 1.5279711778045884 0 0 0
2209 1 18.86517534621152 12.603282447496861 15.710460368038056 0 0 0
8 1 11.03826025173005 1.6465487096813722 1.5278765653564035 0 0 0
2137 1 18.86513670440169 12.6025238351479 12.554835321287156 0 0 0
10 1 14.168949879597573 1.646468005168884 1.5277720812134263 0 0 0
426 1 7.907489967583972 17.29990201301552 17.288268996679196 0 0 0
12 1 17.299771977638137 1.646411488446089 1.5276895910190182 0 0 0
13 1 0.0815442330955571 3.2119223089126305 -0.04271644587579384 0 0 0
14 1 1.6467507286636476 4.77720038644284 1.528024626806195 0 0 0
15 1 3.211956435287716 3.2119222809594863 -0.042716728203760004 0 0 0
16 1 4.7771626652694 4.777168793180621 1.5279907722985355 0 0 0
17 1 6.342391233497076 3.2118640021885065 -0.04277025656733359 0 0 0
18 1 7.907609728697744 4.77705453693757 1.5278870662006012 0 0 0
19 1 9.472891406462855 3.2117392864408183 -0.04287955763133968 0 0 0
20 1 11.03814071538247 4.77685214541121 1.5277159907087836 0 0 0
21 1 12.603513484683761 3.211528926228042 -0.043031069177613866 0 0 0
22 1 14.168820716821786 4.776594764574286 1.5275027658605886 0 0 0
23 1 15.734293218895704 3.2113331529630913 -0.043168618243590265 0 0 0
24 1 17.299684424380004 4.776420692041078 1.5273487544206688 0 0 0
25 1 0.08158163453302733 6.3424741785117345 -0.04275514746978744 0 0 0
26 1 1.646751431350406 7.907781003211911 1.5279966572506374 0 0 0
27 1 3.211920056756915 6.342474009995697 -0.042755768529355656 0 0 0
28 1 4.77708511889974 7.907735269480505 1.5279337632659746 0 0 0
29 1 6.342275968548486 6.342370939167512 -0.042849439104104194 0 0 0
30 1 7.907443464820051 7.907567915311185 1.5277363633739547 0 0 0
31 1 9.472685996352306 6.342117503411812 -0.04305880557890867 0 0 0
32 1 11.037880630490736 7.907238554484248 1.5273464971436923 0 0 0
33 1 12.603242137984006 6.3416658901637915 -0.04338623386055193 0 0 0
34 1 14.16848091431296 7.906746486137689 1.5267827828326055 0 0 0
35 1 15.73407832271707 6.341260344849883 -0.04366599581610605 0 0 0
36 1 17.299471788819922 7.906448264747158 1.5264439690977119 0 0 0
37 1 0.08164208708465198 9.473100195431174 -0.042787268186147344 0 0 0
38 1 1.646752508413766 11.038450620480225 1.5279775681692707 0 0 0
39 1 3.2118614596984996 9.473099671081483 -0.0427879851012636 0 0 0
40 1 4.777002387766671 11.038400739533982 1.5278887272061952 0 0 0
41 1 6.342075855162339 9.472985317372984 -0.04294687901748212 0 0 0
42 1 7.907256986195825 11.0382224378768 1.5275648651573273 0 0 0
43 1 9.472299117473103 9.472659417539901 -0.04334050409283528 0 0 0
44 1 11.037508739326869 11.037792786537889 1.5268319713999496 0 0 0
45 1 12.602693251372843 9.472029274573167 -0.04403759307318536 0 0 0
46 1 14.167870923672051 11.037021202697833 1.5256007613808285 0 0 0
47 1 15.733651011145401 9.47143784853614 -0.04458862803345944 0 0 0
48 1 17.299088182021844 11.036640915710764 1.524951596943636 0 0 0
49 1 0.08167939519878673 12.603821486645554 -0.04279442634165755 0 0 0
50 1 1.646753429857246 14.169197610422918 1.5279711523547446 0 0 0
51 1 3.2118264096051274 12.603820719420366 -0.04279483119324001 0 0 0
52 1 4.776984892879063 14.16916034736558 1.5278818703092651 0 0 0
53 1 6.341964469128781 12.603742460463472 -0.04298112080237791 0 0 0
54 1 7.907245826000838 14.169059973522202 1.5275355364070573 0 0 0
55 1 9.472103026957933 12.603517991716869 -0.0434552614522507 0 0 0
56 1 11.037543102376302 14.168827716780257 1.5267787747238173 0 0 0
57 1 12.602347279233566 12.603048261876696 -0.04436572745941072 0 0 0
58 1 14.167930932307407 14.16829350054353 1.5253821834869217 0 0 0
59 1 15.73303548607785 12.602243727185579 -0.045745624582074304 0 0 0
60 1 17.298679905462116 14.167400672708004 1.5233269999313868 0 0 0
425 1 6.342216296843293 15.734504677819196 15.710444419064785 0 0 0
62 1 1.646753809630898 17.29995477183838 1.5279628553659512 0 0 0
63 1 3.21184076855394 15.734575358716521 -0.04279379699286018 0 0 0
64 1 4.777006685424334 17.299937213524235 1.5278921486883184 0 0 0
65 1 6.341992796846665 15.73454137509174 -0.042961503601117085 0 0 0
66 1 7.907295118582232 17.299905536356267 1.527561384854751 0 0 0
67 1 9.472199633605742 15.734449017061138 -0.04341228518793474 0 0 0
68 1 11.037657339190503 17.299835756843343 1.5269151331586963 0 0 0
69 1 12.602556248713915 15.734296540487673 -0.04415909482224958 0 0 0
70 1 14.168207003550645 17.2997053858491 1.5259593967488834 0 0 0
71 1 15.73333182568496 15.734118246361689 -0.04519702789728368 0 0 0
72 1 17.29923302804733 17.299666135441125 1.5248633878923605 0 0 0
424 1 4.777126997624181 17.299944451237966 17.28813469111037 0 0 0
74 1 1.6467503099148955 1.6466733580619655 4.6666388286242215 0 0 0
423 1 3.211913747411845 15.73456907940648 15.710350194919322 0 0 0
76 1 4.777227667859092 1.6466658992745853 4.666614386688477 0 0 0
61 1 0.08166637314340619 15.734575916540123 -0.04279343944834671 0 0 0
78 1 7.907743881158604 1.6466370282156426 4.6665677324663495 0 0 0
2197 1 18.865246222634266 9.472798465402361 15.710251400897445 0 0 0
80 1 11.03833136831909 1.6465906418175222 4.666483954790616 0 0 0
361 1 0.0814538334103645 0.08141133116863809 15.710261141158922 0 0 0
82 1 14.1690133814597 1.646533777508041 4.666380274434423 0 0 0
85 1 0.08152610730081986 3.211931654150614 3.0850033491708726 0 0 0
84 1 17.29979677523477 1.6464822525373384 4.66629808311965 0 0 0
422 1 1.6467498562520522 17.299956991305077 17.288091205083976 0 0 0
86 1 1.6467507171767537 4.777211214210549 4.6666143718541475 0 0 0
87 1 3.211974806889789 3.2119317060594095 3.085002992113354 0 0 0
88 1 4.777212177284791 4.777184998182002 4.66657682983552 0 0 0
89 1 6.34244506059448 3.2118886977224306 3.084953608035637 0 0 0
90 1 7.907700594084521 4.777101722490279 4.666482579881411 0 0 0
91 1 9.472965626448504 3.2117954760626435 3.084858396946251 0 0 0
92 1 11.03825737414366 4.7769667222540555 4.6663291192312535 0 0 0
93 1 12.603581257473811 3.211674522662211 3.084728059180438 0 0 0
94 1 14.168913987913362 4.7767803336130985 4.666149394607023 0 0 0
95 1 15.734329039853224 3.2115417093529564 3.0845924683466333 0 0 0
96 1 17.29971666146055 4.776580180614085 4.665991787573466 0 0 0
1885 1 18.86519927769773 3.2114751400345365 3.0845177505282306 0 0 0
98 1 1.6467516695937188 7.90778927993501 4.666573515121568 0 0 0
99 1 3.211954281561328 6.342477046781776 3.0849689934355555 0 0 0
100 1 4.777160859545549 7.9077459985452645 4.666518542639856 0 0 0
101 1 6.3423728999291225 6.3423994456703685 3.084875651002885 0 0 0
102 1 7.907593074353626 7.907620916328039 4.666345345520468 0 0 0
103 1 9.47284362921266 6.342233209934217 3.084683309565348 0 0 0
104 1 11.038066344058741 7.9073733581071695 4.666043983436598 0 0 0
105 1 12.603411122171105 6.341972827362955 3.084389233107057 0 0 0
106 1 14.168646212590055 7.906955718847384 4.665641052108259 0 0 0
107 1 15.734140174258515 6.341650365201679 3.0840695531797806 0 0 0
108 1 17.29947292350392 7.906383229225794 4.665245365330676 0 0 0
420 1 17.299746777813723 14.1688553125216 17.288423832587853 0 0 0
110 1 1.6467524752509308 11.038441295268404 4.666538002688235 0 0 0
111 1 3.2119201530892023 9.4730892856937 3.0849291283496307 0 0 0
112 1 4.777097579948055 11.038388286192516 4.666452451486246 0 0 0
113 1 6.342267431379229 9.472991007722413 3.084772446256627 0 0 0
114 1 7.9074406643668596 11.038219338132812 4.666181350296235 0 0 0
115 1 9.472643090767296 9.472754455657075 3.0844049243541756 0 0 0
116 1 11.03774181676266 11.03783959880077 4.665653695120286 0 0 0
117 1 12.603065191368778 9.472294378354476 3.0837657290924367 0 0 0
118 1 14.168030695704209 11.03698769177334 4.664788869925879 0 0 0
119 1 15.73365544153482 9.471545874963759 3.0829483328325353 0 0 0
120 1 17.298596834776976 11.035346939942526 4.663617159322628 0 0 0
419 1 15.734016462288597 12.603030255886507 15.71090231690269 0 0 0
122 1 1.6467531009131988 14.16916812721884 4.666511718143978 0 0 0
123 1 3.2118955038628987 12.603791888432013 3.0849013148565967 0 0 0
124 1 4.777058510093223 14.169123201649091 4.666414063274109 0 0 0
125 1 6.342186825285339 12.60369607580567 3.084689566583091 0 0 0
126 1 7.907316901146373 14.168978219562382 4.666074220412174 0 0 0
127 1 9.472435962022042 12.603438185004341 3.0841499363057197 0 0 0
128 1 11.037308498887656 14.16857623260662 4.6653575233899085 0 0 0
129 1 12.602465933246338 12.602738731177029 3.0829948740351725 0 0 0
130 1 14.166432783048242 14.167077105958947 4.6635188893427575 0 0 0
131 1 15.732345347143092 12.601168610332698 3.080888583034706 0 0 0
132 1 17.29447642287632 14.162545220747736 4.658746638656526 0 0 0
418 1 14.16851670543188 14.168620949754064 17.288871978126913 0 0 0
134 1 1.6467534653339955 17.299941443341815 4.666503210190683 0 0 0
135 1 3.211895908321286 15.734555975657246 3.0848952571172563 0 0 0
136 1 4.77706762918831 17.299919359850872 4.666406038124144 0 0 0
137 1 6.342205664442058 15.73450352509836 3.0846859724973696 0 0 0
138 1 7.907372296585052 17.299878256884146 4.666075514696593 0 0 0
139 1 9.472534926572088 15.734394674986484 3.084177901517956 0 0 0
140 1 11.037625244489266 17.299795477613138 4.665492236535208 0 0 0
141 1 12.602863726787293 15.734158152237876 3.0832768023821226 0 0 0
142 1 14.16784850061722 17.299700589545147 4.664591157993419 0 0 0
143 1 15.733176663080908 15.733457634240176 3.081539174504012 0 0 0
144 1 17.297974062862252 17.299171540967784 4.66203625379977 0 0 0
2113 1 18.865245645333413 6.3420946435746055 12.554621764008372 0 0 0
146 1 1.6467500886337172 1.6466834173048528 7.821625607961905 0 0 0
417 1 12.602851804385285 12.602939161137977 15.711081524114443 0 0 0
148 1 4.777266613451017 1.6466747775745771 7.8216081157996475 0 0 0
97 1 0.08154828348806167 6.342477325291378 3.084969522441778 0 0 0
150 1 7.907808196305418 1.646654799158003 7.821553870210872 0 0 0
1993 1 18.86373071748524 12.597451917128554 6.239659701854936 0 0 0
152 1 11.038416427471594 1.6466119896953277 7.821478165692787 0 0 0
416 1 11.037944579020976 14.168894949057956 17.28848773810853 0 0 0
154 1 14.169096904703954 1.646568623652664 7.821399503212027 0 0 0
1969 1 18.865141537312844 6.341456212635652 6.24288172834517 0 0 0
156 1 17.299850096681794 1.6465289117475128 7.8213367963144025 0 0 0
415 1 9.472592656899863 12.603479673580852 15.710600405007295 0 0 0
158 1 1.6467505324580487 4.777232864078128 7.821597233063631 0 0 0
159 1 3.211996435992048 3.211941610311824 6.243692979452594 0 0 0
160 1 4.777244204137925 4.777203135172551 7.821569121820368 0 0 0
161 1 6.342493554387086 3.211910343841638 6.24364526277294 0 0 0
162 1 7.9077620879528645 4.777133574082027 7.821491063899527 0 0 0
163 1 9.473045434405991 3.2118416674631662 6.24356145662786 0 0 0
164 1 11.038340431939641 4.777013260173391 7.821381602092845 0 0 0
165 1 12.60367318003668 3.2117450906006697 6.2434519176258085 0 0 0
166 1 14.168993019925475 4.776857993591438 7.8212682980254815 0 0 0
167 1 15.734394743281149 3.211640950103549 6.243347637555415 0 0 0
168 1 17.29977238522444 4.7766946735346405 7.821180517379675 0 0 0
1933 1 18.864226860520645 15.732045913117704 3.0785884453139363 0 0 0
170 1 1.6467511913762451 7.90781065670372 7.821551427579011 0 0 0
171 1 3.2119795249431315 6.342491837324155 6.243654394179174 0 0 0
172 1 4.777198061820855 7.907768287937651 7.821513794531433 0 0 0
173 1 6.34244441179113 6.342426887655855 6.243574972095171 0 0 0
174 1 7.907660855427307 7.907645021073479 7.821396773485847 0 0 0
175 1 9.472955198710302 6.342294448257457 6.243429045271379 0 0 0
176 1 11.038158605199836 7.907424642605915 7.821222654001772 0 0 0
177 1 12.603522615172846 6.34207448301633 6.243231749211773 0 0 0
178 1 14.168742442927662 7.907050050111595 7.821025726448529 0 0 0
179 1 15.734229131929812 6.3417662525891005 6.24303285863601 0 0 0
180 1 17.299567392327127 7.906579625498091 7.820874874703643 0 0 0
157 1 0.08150443060935686 3.211941795558511 6.243693354433685 0 0 0
182 1 1.6467519248727207 11.038452104527046 7.821499484495961 0 0 0
183 1 3.2119531153549703 9.47309623097653 6.243602058540605 0 0 0
184 1 4.777127505790752 11.038395547503011 7.821450373270377 0 0 0
185 1 6.342354398970071 9.473001291179653 6.243485362620418 0 0 0
186 1 7.9074818415330155 11.03822503198033 7.821286475308376 0 0 0
187 1 9.47276546687506 9.472792429346724 6.243240056716215 0 0 0
188 1 11.037795242879115 11.037859200971583 7.821020590081049 0 0 0
189 1 12.6031973638549 9.472358788040825 6.242866996562173 0 0 0
190 1 14.168151791434585 11.037090979655163 7.820672159954352 0 0 0
191 1 15.733812403952994 9.47159800684583 6.242447513826109 0 0 0
192 1 17.29894727735397 11.03579465916233 7.820435438241961 0 0 0
1897 1 18.865120477009604 6.3414938191376615 3.0838958511707566 0 0 0
194 1 1.6467522250150237 14.169169198872769 7.821462240792965 0 0 0
195 1 3.2119206092319783 12.603780031927432 6.243557770452284 0 0 0
196 1 4.777053093885186 14.169111806907377 7.821404922035133 0 0 0
197 1 6.342237685991876 12.603669371454748 6.243396711002852 0 0 0
198 1 7.907256652458849 14.168941589146202 7.8211945967720045 0 0 0
199 1 9.472471554649921 12.603396675317027 6.243039064792218 0 0 0
200 1 11.037220154037218 14.16849611286485 7.8208310777583705 0 0 0
201 1 12.602544946708038 12.602698257344075 6.242435814702285 0 0 0
202 1 14.16685031620431 14.167209476619195 7.8202805011684555 0 0 0
203 1 15.732657444195272 12.60099625693724 6.24140807318908 0 0 0
204 1 17.297015767064526 14.163592610238561 7.819699719286624 0 0 0
241 1 0.08150664296025667 6.342521161074 9.399283212431778 0 0 0
206 1 1.6467522435589308 17.299934080197048 7.821447747611363 0 0 0
207 1 3.211906251956353 15.734538362943747 6.24353106912289 0 0 0
208 1 4.777013640793514 17.29991321814888 7.821383997912075 0 0 0
209 1 6.3421664608513675 15.73446335429162 6.243347615863789 0 0 0
210 1 7.907118123770195 17.299843452578692 7.821155537802298 0 0 0
211 1 9.472241072700658 15.734285748603373 6.242942051954566 0 0 0
212 1 11.036861869206321 17.299664326514474 7.820782894616652 0 0 0
213 1 12.601716849528602 15.733656002989179 6.242114783604373 0 0 0
214 1 14.16572059709414 17.298730822762007 7.8200256765778615 0 0 0
215 1 15.728788009406157 15.730211470000425 6.238746836207391 0 0 0
216 1 17.292116277645228 17.28810124062167 7.8122359279550535 0 0 0
1909 1 18.8649336590543 9.471325112066191 3.082623655573223 0 0 0
218 1 1.64674976064095 1.6466895458808106 10.977082971325826 0 0 0
1801 1 18.86521218135009 0.0814113318483594 -0.043110050746724866 0 0 0
220 1 4.777304831040517 1.6466860274428226 10.977072503496503 0 0 0
217 1 0.08147924973383508 0.08141133155215385 9.399335487541187 0 0 0
222 1 7.907878671849844 1.6466615059512097 10.977028256539073 0 0 0
219 1 3.2120204131229055 0.08141133154948221 9.399335015082839 0 0 0
224 1 11.038499291655134 1.6466281484785736 10.976975948442409 0 0 0
109 1 0.08158411528623756 9.473090038640919 3.0849296567499467 0 0 0
226 1 14.169177375163564 1.6465893811561931 10.976926047729764 0 0 0
1921 1 18.864504709935332 12.601059092247985 3.0806604462499707 0 0 0
228 1 17.299907172145414 1.6465723995865138 10.976884858114918 0 0 0
414 1 7.9075449482391855 14.169093619394395 17.28823936287639 0 0 0
230 1 1.6467501501923694 4.777249828196217 10.977064708346012 0 0 0
231 1 3.212011703259218 3.2119595971882386 9.39932003471648 0 0 0
232 1 4.777274608248812 4.77723119034828 10.977051369068388 0 0 0
233 1 6.342541523056113 3.2119290529474167 9.399282731254525 0 0 0
234 1 7.907818227755432 4.777159967339249 10.976999400015536 0 0 0
235 1 9.473116970238339 3.211865281201945 9.399213209299411 0 0 0
236 1 11.038409254710233 4.777048197666253 10.97693626809568 0 0 0
237 1 12.603754322063176 3.211781754101374 9.399138781348537 0 0 0
238 1 14.169071365478871 4.776918580908156 10.976883188471719 0 0 0
239 1 15.73446510887776 3.2117014873823386 9.399073887632701 0 0 0
240 1 17.299835396538565 4.776837691154006 10.976841320359854 0 0 0
413 1 6.342305637269615 12.60374440544018 15.710396020043012 0 0 0
242 1 1.6467505987536821 7.907839773580097 10.977031651673864 0 0 0
243 1 3.2119945438968402 6.342520412147213 9.399283266486874 0 0 0
244 1 4.777215510870375 7.907803086651288 10.977014462154635 0 0 0
245 1 6.342483240296864 6.342454528642575 9.399233194464724 0 0 0
246 1 7.907697598798582 7.9076814692626725 10.976954009194776 0 0 0
247 1 9.473012827113234 6.342324615422897 9.399136933736994 0 0 0
248 1 11.038210842050795 7.907463422501384 10.9768878772488 0 0 0
249 1 12.603598502028472 6.342128423012581 9.399038906953818 0 0 0
250 1 14.168815309705801 7.907150664493674 10.97685119484353 0 0 0
251 1 15.734303280321345 6.341893098764548 9.398958129435526 0 0 0
252 1 17.299667302818538 7.9068920303069845 10.976797073014692 0 0 0
1873 1 18.86521730648039 0.08141133228634057 3.08467858452741 0 0 0
254 1 1.6467511030505615 11.038481620229879 10.9769988005962 0 0 0
255 1 3.211961161518977 9.473127767094496 9.399235951309542 0 0 0
256 1 4.777128525074959 11.038426269351218 10.976987460478645 0 0 0
257 1 6.3423813971279 9.473027432036488 9.399171882088943 0 0 0
258 1 7.907482295770981 11.038243519140712 10.976930022501664 0 0 0
259 1 9.4728060241844 9.472815152941543 9.399046015149768 0 0 0
260 1 11.037790084640637 11.037884291029707 10.976889813821726 0 0 0
261 1 12.603252355682184 9.472431584878342 9.398910044045216 0 0 0
262 1 14.168157329678545 11.037195065961841 10.97693496688121 0 0 0
263 1 15.733882788677725 9.471826210321426 9.398813271145137 0 0 0
264 1 17.29906800279078 11.036316662728437 10.97702570304195 0 0 0
412 1 4.777151430840545 14.169195874632555 17.288113396652232 0 0 0
266 1 1.6467513273195131 14.169180397528422 10.97698054785683 0 0 0
267 1 3.2119213710710572 12.603796629679724 9.39919456161356 0 0 0
268 1 4.777029023630529 14.169124902962745 10.976973613917993 0 0 0
269 1 6.342231682957201 12.603672730064698 9.399121755715813 0 0 0
270 1 7.907185652536152 14.168938249833106 10.976933354754832 0 0 0
271 1 9.472443985614367 12.603396903192738 9.398970921562936 0 0 0
272 1 11.037053334559753 14.168493224576359 10.976967117603948 0 0 0
273 1 12.602520793832726 12.602767549749135 9.398828136904498 0 0 0
274 1 14.166499825260358 14.1672965107722 10.977450199005906 0 0 0
275 1 15.732634641155851 12.60141345481377 9.398801500856212 0 0 0
276 1 17.295780254355975 14.163412744470094 10.97967876793285 0 0 0
411 1 3.2119418363533496 12.603840551511144 15.710324262337139 0 0 0
278 1 1.6467513435440606 17.299937200158354 10.976973839955354 0 0 0
279 1 3.2118853876439633 15.734537159800478 9.399172909496219 0 0 0
280 1 4.776945213219042 17.299910907071435 10.976975458833987 0 0 0
281 1 6.342074289120707 15.734448525317873 9.39909471976174 0 0 0
282 1 7.906895644569347 17.299829558731936 10.976964618340974 0 0 0
283 1 9.471993990539076 15.734225736127854 9.398921390580485 0 0 0
284 1 11.036132227885071 17.299596310422412 10.977167136821489 0 0 0
285 1 12.60126322644921 15.73356544129341 9.398759221591089 0 0 0
286 1 14.162998085052678 17.29840391119921 10.978900993698465 0 0 0
287 1 15.729090141238126 15.731530310285157 9.398955246891264 0 0 0
288 1 17.281018511486415 17.284864040661454 10.99495302582839 0 0 0
410 1 1.646749778141489 14.16922382859266 17.28807581131173 0 0 0
290 1 1.6467495002507853 1.6466929524480034 14.132545196571114 0 0 0
409 1 0.08155832128739834 12.603841225291195 15.710322513896047 0 0 0
292 1 4.7773327498531115 1.6466907113211386 14.132534905484826 0 0 0
408 1 17.29984264449375 11.0382109077226 17.288115302648016 0 0 0
294 1 7.90793056530956 1.6466733861038265 14.132513211639914 0 0 0
2149 1 18.86470011842062 15.73263190701394 12.55679327808095 0 0 0
296 1 11.0385633396005 1.646645065225808 14.13248893872435 0 0 0
121 1 0.0816104248203052 12.603792813451054 3.084901708200486 0 0 0
298 1 14.169242813937709 1.6466255210187437 14.13246187909264 0 0 0
407 1 15.734397323342728 9.47271482809099 15.710387601414327 0 0 0
300 1 17.299950794725778 1.6466254561993046 14.132429994057654 0 0 0
301 1 0.08147058324971206 3.2119718197870513 12.554813485706006 0 0 0
302 1 1.6467495856312742 4.777265991192118 14.132542594159238 0 0 0
303 1 3.2120289550540586 3.211971476726853 12.554813237265314 0 0 0
304 1 4.77730755110916 4.777252341811023 14.132535478276386 0 0 0
305 1 6.342594622630472 3.211947850049927 12.55478770204906 0 0 0
306 1 7.907878572702115 4.77719199315455 14.132515216847748 0 0 0
307 1 9.473186040013884 3.211890906552131 12.55474839050834 0 0 0
308 1 11.038487475133103 4.777100213894406 14.132496631612378 0 0 0
309 1 12.603829953855469 3.2118216437903713 12.554711350792989 0 0 0
310 1 14.169161227699373 4.77702426149713 14.132475088306402 0 0 0
311 1 15.734535767314634 3.211776237728178 12.554672615098292 0 0 0
312 1 17.299908359048448 4.777035041567853 14.132427204091666 0 0 0
406 1 14.168933407123788 11.038092142096167 17.28833272122224 0 0 0
314 1 1.6467500229062118 7.907856161632467 14.132535775245161 0 0 0
315 1 3.2120058072264412 6.342542877178859 12.5547924195766 0 0 0
316 1 4.777244376016779 7.907828327856188 14.132536326787156 0 0 0
317 1 6.342525556844053 6.342489063705053 12.55477035182364 0 0 0
318 1 7.907750507750402 7.907719982542509 14.132531280500755 0 0 0
319 1 9.473075284276588 6.342366828649688 12.554729390065498 0 0 0
320 1 11.038288956554506 7.907529439743212 14.13255353476948 0 0 0
321 1 12.603676712575032 6.342198153573286 12.554706309528633 0 0 0
322 1 14.168944425875232 7.907306058123883 14.132594324832782 0 0 0
323 1 15.734406170033633 6.3420546935337345 12.554683166745944 0 0 0
324 1 17.299835611038645 7.907391266314847 14.132466849507187 0 0 0
1849 1 18.8647294845185 12.601843126070762 -0.046112902871919464 0 0 0
326 1 1.64675032895927 11.038495104884007 14.132542828359446 0 0 0
327 1 3.2119693505602265 9.473151810395008 12.554775263638803 0 0 0
328 1 4.777151014139944 11.038451763863566 14.132555991518979 0 0 0
329 1 6.342405202159821 9.473062832787058 12.554764124971364 0 0 0
330 1 7.9075335898619015 11.038286130865334 14.132600347331284 0 0 0
331 1 9.472840746784943 9.472849464423785 12.554750240630614 0 0 0
332 1 11.03787313333291 11.03793073966662 14.132749846660335 0 0 0
333 1 12.603318098975784 9.472492060700802 12.554792615205919 0 0 0
334 1 14.168301886416446 11.037268000700676 14.133113819993019 0 0 0
335 1 15.734038559671557 9.472024314456574 12.55486752271986 0 0 0
336 1 17.29967508930951 11.037650559199346 14.132670014977084 0 0 0
2089 1 18.86529772273219 0.0814113321404406 12.554656814757898 0 0 0
338 1 1.6467505486221994 14.169196700763623 14.1325581290026 0 0 0
339 1 3.2119196771714784 12.603817249126926 12.554772930575806 0 0 0
340 1 4.7770492378295515 14.169148414187378 14.132593715438432 0 0 0
341 1 6.342231922878892 12.603701967040164 12.554783661448024 0 0 0
342 1 7.9072415055495915 14.168961150881634 14.132714269068876 0 0 0
343 1 9.472435676840187 12.603408102335907 12.554834708442142 0 0 0
344 1 11.037129539678476 14.168456142374042 14.133151250095693 0 0 0
345 1 12.602487523643132 12.602740135228364 12.5551197476058 0 0 0
346 1 14.166667421662584 14.16699463059036 14.134602029370892 0 0 0
347 1 15.732609375700072 12.60110324026866 12.556056755768436 0 0 0
348 1 17.299072866283325 14.167857563631756 14.133687640137255 0 0 0
349 1 0.08162454721930143 15.734550234440944 12.554776886152375 0 0 0
350 1 1.6467505529631432 17.299944017313013 14.13256958241599 0 0 0
351 1 3.211877071123013 15.734549689873141 12.554778713760477 0 0 0
352 1 4.776997550274383 17.29992355200691 14.13261565719018 0 0 0
353 1 6.342045657777945 15.734457398806736 12.554822783435881 0 0 0
354 1 7.907104530993516 17.29984492444456 14.132769507063598 0 0 0
355 1 9.47188011209988 15.734199963407992 12.554998143413727 0 0 0
356 1 11.03690801086128 17.299655993686198 14.133244989375912 0 0 0
357 1 12.60085130106006 15.733296714196374 12.55593388182299 0 0 0
358 1 14.166571491019997 17.29919339706751 14.134468050196368 0 0 0
359 1 15.72792408757112 15.728951844864085 12.56060806472236 0 0 0
360 1 17.2976129104399 17.298859363445036 14.1363681891916 0 0 0
432 1 17.29955879574297 17.299801480818616 17.28887896717209 0 0 0
362 1 1.646749247097659 1.6467004531463336 17.28797709159789 0 0 0
431 1 15.733200639350946 15.733562328762293 15.712151809622947 0 0 0
364 1 4.7773538406391145 1.6466942671936826 17.28797231835083 0 0 0
430 1 14.168366555938475 17.299725819942253 17.288948989159437 0 0 0
366 1 7.9079715427882125 1.6466835754322646 17.287967564420285 0 0 0
429 1 12.602586776958498 15.734020228896417 15.711219534201009 0 0 0
368 1 11.038619019538249 1.6466691795530908 17.287954795882616 0 0 0
428 1 11.037838330376147 17.29982363013152 17.288545139239172 0 0 0
370 1 14.169301442132133 1.646664226979841 17.287931833095804 0 0 0
427 1 9.472422689302258 15.734336007206965 15.710682319453959 0 0 0
372 1 17.299986052317458 1.6466720020309804 17.287906104353585 0 0 0
405 1 12.603478023202376 9.472640253583656 15.710536293436938 0 0 0
374 1 1.6467492492295253 4.77728665187153 17.28799240832468 0 0 0
375 1 3.212042696595429 3.2119829843654193 15.710265859387528 0 0 0
376 1 4.777332912548031 4.777267924612634 17.287988924110973 0 0 0
377 1 6.3426345332454135 3.21196146298722 15.7102572752878 0 0 0
378 1 7.907930991297826 4.777226018178993 17.287989908563272 0 0 0
379 1 9.47324744052876 3.211921416680908 15.710245732396313 0 0 0
380 1 11.038567300423049 4.777171152378127 17.28799168457995 0 0 0
381 1 12.603904215248738 3.211879242610591 15.710228618606736 0 0 0
382 1 14.169262497289344 4.777164762463831 17.287956285013323 0 0 0
383 1 15.734604455555496 3.211880172813405 15.710193552310772 0 0 0
384 1 17.299960925314853 4.777184565580203 17.287912519889673 0 0 0
404 1 11.03813924790126 11.038140708642896 17.288345595127964 0 0 0
386 1 1.6467493861860694 7.907886949978121 17.28801828903957 0 0 0
387 1 3.2120215922364084 6.342564016147097 15.710276792568166 0 0 0
388 1 4.777280466125294 7.907857884955008 17.28802090596243 0 0 0
389 1 6.34257170712494 6.3425153573120125 15.710272283333124 0 0 0
390 1 7.907822890604324 7.907770478938264 17.28804863321841 0 0 0
391 1 9.473148228189642 6.34241933308398 15.710280014994613 0 0 0
392 1 11.038419042295658 7.907648439229494 17.28810383201806 0 0 0
393 1 12.603786222210285 6.342310422583543 15.71029310483866 0 0 0
394 1 14.169160943077664 7.907646967591381 17.28805644512523 0 0 0
395 1 15.7345392331819 6.342329478619369 15.710228669423596 0 0 0
396 1 17.29992099166309 7.907693109069628 17.287971425572916 0 0 0
397 1 0.08151584844772902 9.473174538145475 15.710292540037994 0 0 0
398 1 1.6467496904999304 11.038526444561048 17.28804572779678 0 0 0
399 1 3.211983955858882 9.473173769636443 15.71029368515236 0 0 0
400 1 4.777206270364938 11.03849053003727 17.288071543172556 0 0 0
401 1 6.342454707897091 9.473096568090451 15.710316266305982 0 0 0
402 1 7.907656217543394 11.038365868623018 17.288161281535455 0 0 0
403 1 9.472935015754429 9.472918819517036 15.710391379537361 0 0 0
371 1 15.734630378598887 0.0814113316931708 15.710189354388918 0 0 0
1981 1 18.864907270041353 9.470641017059135 6.242036268105791 0 0 0
229 1 0.08148877750469172 3.2119599165242927 9.399320387183614 0 0 0
253 1 0.08154127370748666 9.47312890384203 9.39923536912181 0 0 0
363 1 3.212045086740976 0.08141133116807768 15.710260679611384 0 0 0
151 1 9.473067624865678 0.08141133210656311 6.243617788873132 0 0 0
1 1 0.0815318152609621 0.08141133196101935 -0.04270049075657537 0 0 0
169 1 0.08152261285931972 6.342492361958276 6.243654590607961 0 0 0
295 1 9.473223630201145 0.08141133167100251 12.554756165597576 0 0 0
277 1 0.0816178601260467 15.73453777300785 9.399171804618128 0 0 0
5 1 6.342431274076906 0.08141133219829941 -0.042740727721934914 0 0 0
291 1 3.2120347801711078 0.08141133136247906 12.554812604178501 0 0 0
289 1 0.08146447471330466 0.08141133136530969 12.55481312007741 0 0 0
227 1 15.734516875468085 0.08141133232880977 9.399122625919697 0 0 0
133 1 0.08161112241340616 15.734556544558817 3.0848954974277625 0 0 0
223 1 9.473153807620747 0.08141133191184739 9.399244534170965 0 0 0
77 1 6.342462140615771 0.08141133194918786 3.084987216283627 0 0 0
1861 1 18.864820316588762 15.733835422605106 -0.046367963396724804 0 0 0
2173 1 18.865305308046896 3.211891229908315 15.710164268532909 0 0 0
9 1 12.603586775991744 0.0814113322969881 -0.04293350493797482 0 0 0
265 1 0.08158176006525389 12.603797705071555 9.399193688251112 0 0 0
2017 1 18.865270489158274 0.08141133234155574 9.399084959590189 0 0 0
149 1 6.342504119618283 0.08141133185598562 6.243679793258682 0 0 0
11 1 15.734350868901844 0.08141133203723187 -0.043046737496931185 0 0 0
1825 1 18.865104886934688 6.341091684903278 -0.04379612197122402 0 0 0
2077 1 18.853891801278312 15.72717387082604 9.405544119690088 0 0 0
1837 1 18.86495306714268 9.471146874964916 -0.044826251226931166 0 0 0
2221 1 18.865228705385206 15.734123827164176 15.710825556488977 0 0 0
2029 1 18.865250022343478 3.211655844114715 9.399035292586973 0 0 0
2041 1 18.86518239463478 6.3417362102110815 9.398905706220228 0 0 0
1957 1 18.86521742236147 3.2115460198897368 6.2432791810659 0 0 0
2125 1 18.865187670780845 9.472324320330593 12.554622815687308 0 0 0
2101 1 18.86528024515806 3.2117805891427027 12.554642479140131 0 0 0
205 1 0.08159902366934947 15.734538940701949 6.243530778024176 0 0 0
2005 1 18.850972785143426 15.715973124335036 6.223895078869235 0 0 0
2053 1 18.865005265446896 9.471424158062158 9.398729350963693 0 0 0