LAMMPS data file via write_data, version 2 Aug 2023, timestep = 1355, units = metal

3601 atoms
3 atom types

0.08199563749371547 37.648656362506365 xlo xhi
0.08199921866535125 37.648652781334725 ylo yhi
-15.831203433235803 53.56185543323586 zlo zhi

Masses

1 183.84
2 1.008
3 4.0026

Atoms # atomic

169 1 0.08201325387598916 6.342833406533977 6.244018222962047 0 0 0
2 1 1.6472740583968801 1.6469831287891512 1.5284083954447047 0 0 0
905 1 6.343111715169535 18.865056550320315 -0.04209448658423101 0 0 0
4 1 4.777804406620505 1.6469967082426642 1.5284520772230041 0 0 0
205 1 0.08201328916340092 15.734511719396943 6.244015151758674 0 0 0
6 1 7.908373659316466 1.64702049502342 1.5284994526577231 0 0 0
1271 1 15.73475782007283 18.865097077235642 15.710371757762612 0 0 0
8 1 11.038923179315535 1.6470411922230388 1.52850476214777 0 0 0
2137 1 18.865322223299426 12.603979185977524 12.554973605832453 0 0 0
10 1 14.169465301421253 1.6470318631704997 1.5285001172086354 0 0 0
426 1 7.908376872557202 17.29982476280056 17.28806469700804 0 0 0
12 1 17.3000209059691 1.647030775014576 1.5285093511727819 0 0 0
13 1 0.08201094708212908 3.2122834668337905 -0.042238019337414015 0 0 0
14 1 1.6472774545060547 4.777529416318718 1.5285051395673561 0 0 0
15 1 3.2125388511727704 3.212281541403174 -0.0422439839528649 0 0 0
16 1 4.777810308151204 4.777543391442382 1.528448252205367 0 0 0
17 1 6.343088598068504 3.2122601022086354 -0.042231934667910385 0 0 0
18 1 7.9083608052660175 4.777564462006462 1.5283978425465858 0 0 0
19 1 9.473650284873237 3.212279328753082 -0.04223272417781439 0 0 0
20 1 11.038885727431708 4.777581317049433 1.5284366920107524 0 0 0
21 1 12.604207782113004 3.212308940313246 -0.042196450892140115 0 0 0
22 1 14.169449853041243 4.777586124142562 1.528517974158711 0 0 0
23 1 15.734753204449115 3.212325389876906 -0.04214053671928737 0 0 0
24 1 17.300023132870148 4.77760086363671 1.5285394653438698 0 0 0
25 1 0.08203428282003594 6.342827317013747 -0.04217215898742211 0 0 0
26 1 1.6472772123476433 7.908108031725308 1.5284973283397705 0 0 0
27 1 3.2125198076181025 6.342828669807504 -0.04217721689105917 0 0 0
28 1 4.777816787272316 7.908103147213764 1.5284384223482765 0 0 0
29 1 6.343064141734446 6.342819334320218 -0.042289714497206074 0 0 0
30 1 7.9083456207769265 7.908103759828513 1.5284249633310043 0 0 0
31 1 9.4736281766743 6.342865124018489 -0.04228326284211674 0 0 0
32 1 11.038896262574953 7.908120000259872 1.5284889620032358 0 0 0
33 1 12.604178450274608 6.342869428503139 -0.0421974797556626 0 0 0
34 1 14.169456701726672 7.908132608019381 1.5285434189626865 0 0 0
35 1 15.734734656375304 6.342860825140813 -0.04214779863857375 0 0 0
36 1 17.300020227769995 7.9081166691583595 1.528562715853633 0 0 0
265 1 0.08202050228079541 12.60394975898743 9.399555235152256 0 0 0
38 1 1.6472731616112861 11.038672248932144 1.5284813810552778 0 0 0
39 1 3.2125400840577494 9.473389949344067 -0.04218283952505738 0 0 0
40 1 4.777827090870239 11.038654446496173 1.5284912631974266 0 0 0
41 1 6.34309338908471 9.47338939719599 -0.042243920558631916 0 0 0
42 1 7.908356445741963 11.038651111452355 1.5285020027892333 0 0 0
43 1 9.47364890666054 9.473403971141671 -0.04221099369031423 0 0 0
44 1 11.03890248101455 11.038649212394649 1.528553706550761 0 0 0
45 1 12.604191687725516 9.47339910064943 -0.042152885508184613 0 0 0
46 1 14.169450342631709 11.038669785376827 1.5285964193775634 0 0 0
47 1 15.734741570122663 9.473433274523378 -0.042099849913085456 0 0 0
48 1 17.3000155250069 11.03863584495065 1.528670340091821 0 0 0
1885 1 18.865307916856196 3.2123088936252286 3.0854549768922594 0 0 0
50 1 1.647274695888465 14.169222797270313 1.5284565110066195 0 0 0
51 1 3.212564991005188 12.603947716643466 -0.04220122385092494 0 0 0
52 1 4.77782400781136 14.169206008793639 1.5285165499519513 0 0 0
53 1 6.343115734123318 12.603932087616322 -0.04217436431053279 0 0 0
54 1 7.90837309042839 14.169200185744158 1.5285509255230616 0 0 0
55 1 9.473659878568558 12.603943305581202 -0.042148853707377525 0 0 0
56 1 11.038909189535543 14.169212189860227 1.5286056486111672 0 0 0
57 1 12.604220893641166 12.60396183797684 -0.04205933226762338 0 0 0
58 1 14.169449918149354 14.16919083706531 1.5287131883376375 0 0 0
59 1 15.734770139915316 12.603944472378805 -0.0419686599510375 0 0 0
60 1 17.299988714713514 14.169176520568245 1.5287800258805906 0 0 0
425 1 6.3430968871279125 15.734531620644338 15.710369999233828 0 0 0
62 1 1.6472751788220725 17.29979419763814 1.5284566995875057 0 0 0
63 1 3.212562635795902 15.734496526103285 -0.042199280352527964 0 0 0
64 1 4.777811609856391 17.299774710033102 1.5285424763842224 0 0 0
65 1 6.343087696657496 15.734487841127182 -0.042114898304331384 0 0 0
66 1 7.908365928177369 17.29977016123675 1.5285818221989762 0 0 0
67 1 9.473661117212295 15.734503178379086 -0.042091858234220465 0 0 0
68 1 11.038893362343368 17.29977813663139 1.5286378668678242 0 0 0
69 1 12.604197703299421 15.734513813529 -0.041995107341491054 0 0 0
70 1 14.169423330174968 17.299758766902062 1.5287207250214117 0 0 0
71 1 15.734710150054195 15.734463514675806 -0.041938008413735156 0 0 0
72 1 17.299940005101163 17.299628372266064 1.5288475682581477 0 0 0
424 1 4.777823062702277 17.299810663703614 17.288085247266036 0 0 0
74 1 1.6472744335022376 1.6469989659455766 4.666948298339491 0 0 0
423 1 3.2125408728806777 15.734517066082915 15.710403417507953 0 0 0
76 1 4.777813468416059 1.6470118361909554 4.666963380423881 0 0 0
2053 1 18.86532207112152 9.473405449984273 9.399592665350701 0 0 0
78 1 7.908365394394353 1.6470243588153521 4.666995730301809 0 0 0
2209 1 18.865316601313324 12.603990049326535 15.710362490189663 0 0 0
80 1 11.038915989161818 1.6470409631536655 4.667004651460841 0 0 0
2065 1 18.865314808466362 12.603927598364205 9.399647253054377 0 0 0
82 1 14.169475314718785 1.6470316658711515 4.666990459907763 0 0 0
85 1 0.08201465067251087 3.2122646441758276 3.085392907239027 0 0 0
84 1 17.300039198697277 1.6470252946002581 4.666995836160918 0 0 0
422 1 1.647274816658264 17.299801210078495 17.28810348674834 0 0 0
86 1 1.6472748879013428 4.777556414080994 4.666988174109682 0 0 0
87 1 3.2125352505886293 3.2122625652903207 3.0853904058556925 0 0 0
88 1 4.7777982529129925 4.7775468072051686 4.666957350504834 0 0 0
89 1 6.343085454603411 3.2122858156278773 3.0853780029687896 0 0 0
90 1 7.908342070825534 4.77755122381594 4.666931247116104 0 0 0
91 1 9.473631159182093 3.2122982292862123 3.085397659036567 0 0 0
92 1 11.038899060258302 4.777572274276323 4.666948552954876 0 0 0
93 1 12.604175212326087 3.212308797035554 3.0854159212001897 0 0 0
94 1 14.169455874909769 4.777567251226694 4.6670109407612275 0 0 0
95 1 15.734746858632628 3.212302575156548 3.0854434344992465 0 0 0
96 1 17.300034503868275 4.777564709447945 4.667023618628383 0 0 0
421 1 0.08200905991826427 15.73451594242449 15.71040204640263 0 0 0
98 1 1.6472765502433004 7.908102724737563 4.666999310933948 0 0 0
99 1 3.212541783592312 6.342831193555654 3.0854099643070043 0 0 0
100 1 4.77780194202827 7.908089782224255 4.666953689292302 0 0 0
101 1 6.343066825449626 6.342814173424764 3.085350339636165 0 0 0
102 1 7.908321528788393 7.908092830404993 4.666928914557986 0 0 0
103 1 9.473600383100896 6.342829713392726 3.085354711705117 0 0 0
104 1 11.038874507266886 7.9080995992316145 4.666988511302213 0 0 0
105 1 12.604162598230788 6.342838573621335 3.0854120797046116 0 0 0
106 1 14.169439583348044 7.908099332899373 4.667047081609152 0 0 0
107 1 15.734720535087277 6.34285252860902 3.085469643038843 0 0 0
108 1 17.300020863560174 7.90811925658449 4.667070772961216 0 0 0
420 1 17.300041246924994 14.16927119816469 17.288058024171416 0 0 0
110 1 1.6472743325832415 11.038652360851007 4.66697776423415 0 0 0
111 1 3.2125472134972233 9.473375743213015 3.085411426714549 0 0 0
112 1 4.77780262170656 11.038655141836465 4.6669850667603905 0 0 0
113 1 6.343075847658757 9.473364530344234 3.085390884052451 0 0 0
114 1 7.908342860744872 11.038644481886617 4.667012018921545 0 0 0
115 1 9.473613758277759 9.473372781378796 3.0854237959301196 0 0 0
116 1 11.038867491201218 11.038635300948346 4.667061891581313 0 0 0
117 1 12.604161504634526 9.473380460884783 3.0854796500931716 0 0 0
118 1 14.169421784969598 11.038629412286895 4.66710678752951 0 0 0
119 1 15.73472421107648 9.473378382884375 3.0855266133061474 0 0 0
120 1 17.300025895589215 11.03863966837391 4.667142251811304 0 0 0
419 1 15.734759078440044 12.603992000266492 15.710358809829883 0 0 0
122 1 1.647275042516811 14.16922490416982 4.66697142886008 0 0 0
123 1 3.212537677100662 12.603940327372792 3.0854206625852045 0 0 0
124 1 4.777802177638313 14.169219837016106 4.667009589403531 0 0 0
125 1 6.3430761087850565 12.603923409912165 3.085443027087981 0 0 0
126 1 7.9083373335167515 14.169199248894056 4.667054508088643 0 0 0
127 1 9.473620582862484 12.603921057266254 3.0854874894802995 0 0 0
128 1 11.038878975381934 14.169196468534468 4.667090649484915 0 0 0
129 1 12.604168935496782 12.603915746377792 3.0855292507356378 0 0 0
130 1 14.169427713165732 14.16920214624652 4.667160818849801 0 0 0
131 1 15.734734419501615 12.60389505822406 3.085604360900997 0 0 0
132 1 17.30002336778554 14.16920691316109 4.667170567866311 0 0 0
418 1 14.169478460930014 14.169270604934937 17.288062056289892 0 0 0
134 1 1.6472754418222735 17.299801002795025 4.666971607413643 0 0 0
135 1 3.2125381487101 15.734501397315245 3.085419215686988 0 0 0
136 1 4.777792810044276 17.29979484974263 4.66701311759207 0 0 0
137 1 6.343083940541485 15.734486392145763 3.085476160750311 0 0 0
138 1 7.9083384882795755 17.299778183967117 4.667081506014664 0 0 0
139 1 9.473619226598155 15.7344819908886 3.0855199635932733 0 0 0
140 1 11.03888141298404 17.29976390478454 4.667126812980941 0 0 0
141 1 12.604143968261432 15.734485969962861 3.085581797892727 0 0 0
142 1 14.16944988662232 17.299784046281303 4.667165798901782 0 0 0
143 1 15.734667101943382 15.734458512331495 3.0856825032336044 0 0 0
144 1 17.300041156230385 17.29981571423108 4.6671368020356585 0 0 0
983 1 15.734756551208402 18.865037192616835 3.085605287804556 0 0 0
146 1 1.6472747892857387 1.6470185706466567 7.821844995561666 0 0 0
417 1 12.604212900419647 12.603980444278134 15.710348448248785 0 0 0
148 1 4.777812677612747 1.6470160655323354 7.821866694006358 0 0 0
349 1 0.0820172812098163 15.734507294338115 12.554982252656457 0 0 0
150 1 7.908369355514758 1.6470408604618494 7.821883878872579 0 0 0
911 1 15.734602735018925 18.864990000277434 -0.0419465978667215 0 0 0
152 1 11.038921438155587 1.6470387805004367 7.821891070029576 0 0 0
416 1 11.038937669618516 14.169262100332643 17.288071788957655 0 0 0
154 1 14.169470655966716 1.6470395248200425 7.821892622724156 0 0 0
1969 1 18.865310631784695 6.342840186864672 6.244066518346792 0 0 0
156 1 17.3000367276373 1.647035987249224 7.821898102555421 0 0 0
415 1 9.47366268017318 12.603975981930574 15.710366664171785 0 0 0
158 1 1.6472756475545896 4.777567273727901 7.82189149992689 0 0 0
159 1 3.212539173196568 3.2122884896321438 6.243995132919708 0 0 0
160 1 4.777806223699065 4.777568690791686 7.821864725171083 0 0 0
161 1 6.343075908725389 3.2122864224272347 6.243997949522601 0 0 0
162 1 7.908358895198559 4.777568901481886 7.821838223742218 0 0 0
163 1 9.473633856312821 3.212303998106746 6.243995621479362 0 0 0
164 1 11.03889830936211 4.77756431045934 7.821863703416994 0 0 0
165 1 12.604187176565356 3.212296782365561 6.244008875782279 0 0 0
166 1 14.169467180366466 4.777563410418703 7.8218951775961045 0 0 0
167 1 15.734758153536154 3.212305037254974 6.2440301140914 0 0 0
168 1 17.30003326267835 4.777555115906588 7.821905226491292 0 0 0
1055 1 15.734747637299604 18.865057290765385 6.244132248318016 0 0 0
170 1 1.647275375045649 7.9081168358695635 7.8218910329479705 0 0 0
171 1 3.2125385273712026 6.342832285791892 6.244015696879131 0 0 0
172 1 4.777809264395318 7.908104128815914 7.821864620474288 0 0 0
173 1 6.343070551387309 6.342828026033152 6.243956342911945 0 0 0
174 1 7.908324512471839 7.90808399123664 7.821846928839913 0 0 0
175 1 9.4736091900091 6.342817794430473 6.2439553750155845 0 0 0
176 1 11.038872801844146 7.908099155231482 7.821866424351239 0 0 0
177 1 12.604160009239301 6.342826244827903 6.244013648832964 0 0 0
178 1 14.169438258695031 7.9081050505922965 7.8219015956692965 0 0 0
179 1 15.734731044991342 6.342834346631658 6.244042657287261 0 0 0
180 1 17.30002441531066 7.908120654030241 7.821932610146135 0 0 0
2185 1 18.865319439958242 6.342885355325819 15.7103686656742 0 0 0
182 1 1.6472757388862116 11.038654741586411 7.821886531103801 0 0 0
183 1 3.2125325746463274 9.47337978939009 6.244004829500478 0 0 0
184 1 4.777790464659597 11.038647717239481 7.821881709270704 0 0 0
185 1 6.343049381870985 9.47336138994555 6.2439846261959815 0 0 0
186 1 7.908328277769629 11.038647265137236 7.821876984834485 0 0 0
187 1 9.473586191263301 9.473350918850269 6.244025279830088 0 0 0
188 1 11.038883494329784 11.038647524752214 7.821912416491678 0 0 0
189 1 12.604157308330288 9.473379160780944 6.244069989879417 0 0 0
190 1 14.169439818242795 11.038650232948527 7.8219485155963 0 0 0
191 1 15.734731878464006 9.473375292704898 6.244085135296042 0 0 0
192 1 17.30001044835476 11.03865540150998 7.82197917572181 0 0 0
975 1 3.212528224590307 18.865083854067784 3.085415724098418 0 0 0
194 1 1.6472759149248302 14.16923777242177 7.821878417987186 0 0 0
195 1 3.2125322091808255 12.603937755354334 6.244012761099363 0 0 0
196 1 4.77779093093689 14.169218624129497 7.821896718751 0 0 0
197 1 6.343069213007661 12.60393045794593 6.244036172627787 0 0 0
198 1 7.908323336888434 14.169202718529435 7.821923362254495 0 0 0
199 1 9.473610384479514 12.603923940161296 6.244068652350454 0 0 0
200 1 11.038873730702445 14.169206525846578 7.821960054519486 0 0 0
201 1 12.604151499257485 12.60392049340452 6.244097376557385 0 0 0
202 1 14.16944787407361 14.169204733235313 7.821969184304446 0 0 0
203 1 15.734728951591274 12.603929237644186 6.2441305430573015 0 0 0
204 1 17.30004066348394 14.169228874744993 7.821965963305384 0 0 0
909 1 12.604180670933802 18.86505535108647 -0.041999195432342956 0 0 0
206 1 1.6472772452395839 17.299812447169938 7.82187826368674 0 0 0
207 1 3.2125366647958318 15.734507895270061 6.244011824843878 0 0 0
208 1 4.777784549456233 17.29979370160732 7.821896266425008 0 0 0
209 1 6.343060143470498 15.734500014630338 6.24405866666263 0 0 0
210 1 7.90832582549836 17.299786832371794 7.821935897107938 0 0 0
211 1 9.473596753841832 15.734489496592973 6.244101914030078 0 0 0
212 1 11.03887815211744 17.299776936647234 7.821977541632748 0 0 0
213 1 12.604164137604723 15.734500917479103 6.244122688575936 0 0 0
214 1 14.169452491373221 17.299797676583996 7.821975359162726 0 0 0
215 1 15.734754053320096 15.73449619989518 6.244172831164588 0 0 0
216 1 17.300050649754088 17.299782316297954 7.821975308532292 0 0 0
181 1 0.08201792073577259 9.473380516888044 6.2440053659715335 0 0 0
218 1 1.6472741957709764 1.6470311241035087 10.977237454543125 0 0 0
907 1 9.473649186360479 18.865061109366323 -0.04209677003184228 0 0 0
220 1 4.777835415304038 1.6470327759929295 10.977240088244823 0 0 0
409 1 0.08199734478873827 12.603947911503308 15.710398434561613 0 0 0
222 1 7.9083782578707345 1.6470410059314204 10.977252707785228 0 0 0
193 1 0.08201681309357631 12.603939401366477 6.244012716285738 0 0 0
224 1 11.038927398494135 1.6470436463404594 10.977272184313936 0 0 0
903 1 3.212577153666902 18.865093928007308 -0.042173227041750985 0 0 0
226 1 14.16947193205917 1.6470427520500344 10.977280120033148 0 0 0
2113 1 18.86531376242547 6.342873195946026 12.554990366723063 0 0 0
228 1 17.300030822631925 1.6470468369969742 10.9772836153237 0 0 0
414 1 7.9083959430462025 14.169276114170797 17.288081680650066 0 0 0
230 1 1.6472756410108147 4.777582750901795 10.977256584058772 0 0 0
231 1 3.2125431649557097 3.212296809665228 9.39953851781515 0 0 0
232 1 4.777819138585941 4.777589168140031 10.977238250240253 0 0 0
233 1 6.343091340003493 3.212304708370044 9.399527477232324 0 0 0
234 1 7.908369389348499 4.777582785522209 10.977228496046145 0 0 0
235 1 9.473642055279022 3.212308951521709 9.399538122778113 0 0 0
236 1 11.038923249824487 4.777571953910298 10.977245763719006 0 0 0
237 1 12.604200601453758 3.2123097542238352 9.399545299015235 0 0 0
238 1 14.169476418698578 4.777586094640278 10.977269220543736 0 0 0
239 1 15.734755975771172 3.2123092202442605 9.399570990263465 0 0 0
240 1 17.30003406907537 4.777580669299092 10.97729453905132 0 0 0
413 1 6.343107725125081 12.60398040712855 15.710384360046445 0 0 0
242 1 1.6472744625802005 7.908127575939317 10.97726960038845 0 0 0
243 1 3.212540517338692 6.342852245514659 9.39955008980979 0 0 0
244 1 4.777812646642623 7.908125312694027 10.977251335477552 0 0 0
245 1 6.343079114200652 6.342839410846033 9.399516452558133 0 0 0
246 1 7.908358728401333 7.908112944391458 10.97723772634306 0 0 0
247 1 9.473630530615619 6.342835124386837 9.3995138194413 0 0 0
248 1 11.038903357129568 7.908102757358799 10.9772437473714 0 0 0
249 1 12.604175049138833 6.342833231435831 9.399548024047462 0 0 0
250 1 14.169450943037699 7.908112245300112 10.97727191829843 0 0 0
251 1 15.734741299364366 6.342842852200054 9.399572304443195 0 0 0
252 1 17.300022785967432 7.9081237022757875 10.977290886646447 0 0 0
97 1 0.08201162387085455 6.342830745092351 3.0854111626583913 0 0 0
254 1 1.6472768533294069 11.038665479274975 10.977271143990198 0 0 0
255 1 3.2125458966545097 9.473386633500509 9.39955437352906 0 0 0
256 1 4.777803298128209 11.03866900531229 10.977270820196392 0 0 0
257 1 6.343082557514097 9.473385163462908 9.399532688571119 0 0 0
258 1 7.90833898471087 11.038660586207538 10.977256034776476 0 0 0
259 1 9.473602820332648 9.473373208584116 9.399530367804886 0 0 0
260 1 11.038880722311685 11.038660478513078 10.977262045498918 0 0 0
261 1 12.604151019624563 9.47337126415213 9.399568899932147 0 0 0
262 1 14.169440795247146 11.03867266733159 10.977288411970644 0 0 0
263 1 15.734736657136656 9.473393547168254 9.399587279897453 0 0 0
264 1 17.30000317319175 11.03868014494486 10.977299117975948 0 0 0
412 1 4.777833925721536 14.16925032572261 17.28808932433618 0 0 0
266 1 1.6472766172645141 14.169239622405854 10.977287740847636 0 0 0
267 1 3.2125326912734358 12.60394989399567 9.399556507762686 0 0 0
268 1 4.7777927521105 14.169221419014818 10.977278389127394 0 0 0
269 1 6.3430490367300205 12.603932513324919 9.399561033690025 0 0 0
270 1 7.9083295016510995 14.169224114899803 10.977277640114517 0 0 0
271 1 9.473589460596946 12.603919905074942 9.399586348418717 0 0 0
272 1 11.038886704358605 14.169232402543798 10.977288188821488 0 0 0
273 1 12.604160343817686 12.60394605461888 9.399594303831787 0 0 0
274 1 14.169456702009636 14.16923176536913 10.977306068444719 0 0 0
275 1 15.734732430047812 12.603948101680635 9.399593359575055 0 0 0
276 1 17.30002511336399 14.169253260162115 10.977304164877538 0 0 0
411 1 3.212551490727081 12.603947669710676 15.710398492901916 0 0 0
278 1 1.647276741237774 17.299805893769236 10.977275657315904 0 0 0
279 1 3.2125346176579765 15.734518981878276 9.399566607087204 0 0 0
280 1 4.777781793870624 17.29979804659343 10.977290665926432 0 0 0
281 1 6.3430603370415755 15.734502833591417 9.39956633881043 0 0 0
282 1 7.90832762767368 17.29979716303772 10.97729378011759 0 0 0
283 1 9.473613892153255 15.73450244202149 9.399598366903739 0 0 0
284 1 11.038897217691495 17.299791347290984 10.977300195488704 0 0 0
285 1 12.604169570111878 15.734513418562143 9.399599380306125 0 0 0
286 1 14.169480568892155 17.299816409461556 10.977302849598985 0 0 0
287 1 15.734737461227411 15.734523477270649 9.39963244459646 0 0 0
288 1 17.300038086462155 17.29980512002834 10.977307955746499 0 0 0
410 1 1.6472752545239018 14.169235191608612 17.288084133202542 0 0 0
290 1 1.6472754586671339 1.6470426567234389 14.132611481643758 0 0 0
157 1 0.08201217878779767 3.2122900598025583 6.24399731842223 0 0 0
292 1 4.777846110173522 1.647047434265638 14.132625603282424 0 0 0
408 1 17.300033955352173 11.038730060663998 17.288058171102556 0 0 0
294 1 7.9083965234423665 1.647047808411896 14.132657700657312 0 0 0
241 1 0.08201044884547297 6.342850036268591 9.399551802606965 0 0 0
296 1 11.038927054843967 1.6470468665639357 14.132687642808705 0 0 0
121 1 0.08201214317946465 12.603940005431483 3.0854190894738935 0 0 0
298 1 14.169470001134068 1.6470583949881834 14.13270722632481 0 0 0
407 1 15.734755823000087 9.47345199835012 15.710353559679106 0 0 0
300 1 17.300039686287658 1.6470625580163392 14.132692969575075 0 0 0
981 1 12.604145316628216 18.865042747981505 3.0856250506007084 0 0 0
302 1 1.6472740893423166 4.777608905503516 14.132643487172142 0 0 0
303 1 3.212556149957037 3.2123196679289956 12.554938107116948 0 0 0
304 1 4.777832292569414 4.777603370574663 14.132640753570154 0 0 0
305 1 6.34310636168259 3.212323840165593 12.554938768347327 0 0 0
306 1 7.908375303727096 4.777593924100633 14.132642992607819 0 0 0
307 1 9.47364718844332 3.212315241754442 12.554955009551863 0 0 0
308 1 11.038910314481166 4.777596311223085 14.132667161342223 0 0 0
309 1 12.60419740820326 3.2123149602275416 12.554975774242926 0 0 0
310 1 14.169468527901282 4.777597762255967 14.132682552253323 0 0 0
311 1 15.734748004529214 3.2123245527627864 12.554991112090049 0 0 0
312 1 17.300042168635347 4.777609001016989 14.132687479487293 0 0 0
406 1 14.169471659184826 11.038715471205908 17.28805949079548 0 0 0
314 1 1.6472747738869202 7.908149824490286 14.132682134985984 0 0 0
315 1 3.2125501406901344 6.3428691601194185 12.554965581782996 0 0 0
316 1 4.777825513740378 7.908143211353585 14.132665181280322 0 0 0
317 1 6.34309444447498 6.342860408858556 12.554939289076932 0 0 0
318 1 7.908362265229717 7.9081379708503805 14.132641218181535 0 0 0
319 1 9.473639518793274 6.342852734976558 12.554934428863234 0 0 0
320 1 11.038906722513419 7.908135281712318 14.132644467696723 0 0 0
321 1 12.604187686922831 6.34285859925331 12.554960978230282 0 0 0
322 1 14.169470283420416 7.908149543066462 14.132657483063516 0 0 0
323 1 15.73474726192232 6.342868923976543 12.554986955502281 0 0 0
324 1 17.300033565552948 7.908155676671532 14.132673840602175 0 0 0
2125 1 18.865320629587004 9.473436337926515 12.554978308995107 0 0 0
326 1 1.6472748628171503 11.038671545041385 14.132692183901261 0 0 0
327 1 3.2125407128139547 9.473401237582838 12.554974860984276 0 0 0
328 1 4.777825060590129 11.038680615876967 14.132691112129972 0 0 0
329 1 6.343094456757992 9.473402395975269 12.554953681654327 0 0 0
330 1 7.908373902338702 11.038684671624077 14.13266866798163 0 0 0
331 1 9.473631126699452 9.473395127188551 12.5549418219734 0 0 0
332 1 11.038920511395007 11.038684625784098 14.132644110254379 0 0 0
333 1 12.604176121210678 9.4733920362274 12.554959295808848 0 0 0
334 1 14.169468646038421 11.038686978725313 14.132662311764276 0 0 0
335 1 15.73474496424205 9.473411399498545 12.554982090028378 0 0 0
336 1 17.300041302791662 11.038710110088164 14.132667730226157 0 0 0
1933 1 18.865307559600506 15.734450631837506 3.0856627706614703 0 0 0
338 1 1.6472746415000705 14.169216428080261 14.132709254606047 0 0 0
339 1 3.212542857761833 12.603940218723691 12.55498602749134 0 0 0
340 1 4.777819971281652 14.169229435958437 14.132692351419749 0 0 0
341 1 6.343094031556025 12.60395623368642 12.554971304035046 0 0 0
342 1 7.908378208092278 14.169251122896695 14.13266735090884 0 0 0
343 1 9.473636041157645 12.603949625409859 12.554972590940293 0 0 0
344 1 11.038917611108642 14.169239869061673 14.132670586065721 0 0 0
345 1 12.604178542258223 12.603957764586937 12.554956103741237 0 0 0
346 1 14.169471887356645 14.16925372127297 14.132651791664054 0 0 0
347 1 15.734733184983964 12.603959197374952 12.554963425580503 0 0 0
348 1 17.300045315062867 14.169261462088986 14.132661124151218 0 0 0
2701 1 18.86477768924071 18.86457079303826 -0.04166072759983549 0 0 0
350 1 1.647275810337118 17.299799179861438 14.132685480180317 0 0 0
351 1 3.2125330633090643 15.734508462769064 12.55498442122074 0 0 0
352 1 4.777815167566689 17.299800643328958 14.132686547209394 0 0 0
353 1 6.343073068640877 15.734506354083353 12.554978842269218 0 0 0
354 1 7.908353255147656 17.299808715882786 14.132676416031346 0 0 0
355 1 9.473621945940085 15.734527491749551 12.554991207749097 0 0 0
356 1 11.038906846418625 17.299814609959263 14.132674086972491 0 0 0
357 1 12.6041781114853 15.734526343975544 12.55497779247377 0 0 0
358 1 14.169472675775246 17.299806770193058 14.132660074946397 0 0 0
359 1 15.734748631181086 15.734533282687025 12.554988079644884 0 0 0
360 1 17.300040355956405 17.299821495740026 14.132678534111367 0 0 0
432 1 17.300042175219772 17.299832592197415 17.28805324867895 0 0 0
362 1 1.6472749828785316 1.6470604371018684 17.287991468377484 0 0 0
431 1 15.734761984096687 15.734539413740638 15.710354503232816 0 0 0
364 1 4.77782451320612 1.6470532981077413 17.288011723566253 0 0 0
430 1 14.169480661325759 17.29982424573196 17.288059827583396 0 0 0
366 1 7.908377566194665 1.6470536711410466 17.28805394338116 0 0 0
429 1 12.604211113844384 15.7345381791694 15.71036219707473 0 0 0
368 1 11.038928793802517 1.6470638943123934 17.288084553923007 0 0 0
428 1 11.038931935493265 17.299838795350485 17.288061621304546 0 0 0
370 1 14.169492195088816 1.6470642305156444 17.2880912292226 0 0 0
427 1 9.473663471738233 15.734543017076755 15.710355495540579 0 0 0
372 1 17.300038265133043 1.6470636749356213 17.288098907869312 0 0 0
405 1 12.604190544320925 9.473432237119356 15.710348811844414 0 0 0
374 1 1.6472755873821519 4.777598220451006 17.28802934216643 0 0 0
375 1 3.212558168363187 3.2123308589500805 15.710312256985826 0 0 0
376 1 4.777835788385371 4.777600797487257 17.288033810102352 0 0 0
377 1 6.3431157004271705 3.212330208210155 15.710338153435963 0 0 0
378 1 7.908376696526965 4.777610270180782 17.28805119176252 0 0 0
379 1 9.473648622130717 3.212334463357577 15.710366529827049 0 0 0
380 1 11.03892406022641 4.777629484378086 17.28806216774382 0 0 0
381 1 12.604192954797428 3.2123328702826797 15.710388854934129 0 0 0
382 1 14.169469201564024 4.777633492074011 17.288078111340365 0 0 0
383 1 15.734750733001036 3.2123361283132663 15.710394132415905 0 0 0
384 1 17.30003040450333 4.777631013665705 17.288078751489106 0 0 0
404 1 11.038928851377635 11.038712006336382 17.288048656418873 0 0 0
386 1 1.6472739223269355 7.908152802420389 17.288071191780134 0 0 0
387 1 3.2125582052572397 6.34287857171898 15.71035152624575 0 0 0
388 1 4.777849212915296 7.908148484963982 17.288069374586126 0 0 0
389 1 6.343107415863256 6.342871174494384 15.710352471529037 0 0 0
390 1 7.908392926118253 7.908153323999653 17.288052931521538 0 0 0
391 1 9.47363550153315 6.342875732962629 15.710356222009176 0 0 0
392 1 11.038919693791044 7.9081675367629165 17.288055057949695 0 0 0
393 1 12.604185109660381 6.34288716716262 15.710369316158438 0 0 0
394 1 14.169464672870227 7.9081819993281615 17.288065132051447 0 0 0
395 1 15.734746748868448 6.342892769463344 15.710369147455404 0 0 0
396 1 17.300030016867005 7.908170272783104 17.288067605073756 0 0 0
1267 1 9.473643772774686 18.86510760883912 15.7103616958562 0 0 0
398 1 1.6472740894554057 11.03868568244068 17.288094063757498 0 0 0
399 1 3.212560752599182 9.473414809997745 15.710391337640383 0 0 0
400 1 4.777867110094481 11.038698445721012 17.288086639234407 0 0 0
401 1 6.343113241916643 9.473413828108969 15.710378663913223 0 0 0
402 1 7.908401090490845 11.038709248220764 17.28807021623336 0 0 0
403 1 9.473642632919564 9.473419651455059 15.710349548580265 0 0 0
2197 1 18.865320323374515 9.473444741615772 15.710364712901162 0 0 0
1981 1 18.865317549849227 9.473364325982866 6.244113102670067 0 0 0
229 1 0.0820076293470076 3.2122946391924785 9.399537788956524 0 0 0
253 1 0.08200476798760281 9.473387794274318 9.399554392297032 0 0 0
109 1 0.08200344419349986 9.473376104664421 3.0854095227354974 0 0 0
337 1 0.08200705140650451 12.603942915841083 12.554984359258146 0 0 0
1909 1 18.86532050565459 9.473366828128931 3.0855269988783585 0 0 0
1813 1 18.865319525974634 3.2123376447211194 -0.04211590471242518 0 0 0
313 1 0.08199918274665582 6.342867228686683 12.554964086039549 0 0 0
1049 1 6.343067258733375 18.865071780381943 6.244073163643145 0 0 0
979 1 9.473602422374963 18.865063910711935 3.085533815414997 0 0 0
1957 1 18.8653230027822 3.2123021245139918 6.2440371139871145 0 0 0
2221 1 18.865323185674463 15.734540894045388 15.710354091520397 0 0 0
1123 1 9.47362711368396 18.865078773121272 9.39960188941821 0 0 0
1199 1 15.7347462008192 18.86509697583926 12.554991431237502 0 0 0
2173 1 18.865320333655305 3.2123300217278437 15.71039466104513 0 0 0
325 1 0.08201076770103038 9.473400700155755 12.554975187003187 0 0 0
3061 1 18.865313996604787 18.86509660930191 15.710369641840135 0 0 0
2077 1 18.86532123226188 15.734517143173475 9.399607398305893 0 0 0
2041 1 18.865305936670744 6.342853966537299 9.39958352552941 0 0 0
1119 1 3.2125331766315104 18.86509772796241 9.399569136903935 0 0 0
1047 1 3.212532105401474 18.865092227992314 6.24401250365482 0 0 0
1121 1 6.343054525237175 18.865066455037436 9.399586744738105 0 0 0
1051 1 9.473598025009979 18.86507490463372 6.244115212872401 0 0 0
1195 1 9.473627099277023 18.865090818049072 12.554983760030535 0 0 0
1197 1 12.604189814202972 18.865088795747468 12.554989355931239 0 0 0
1127 1 15.734749039224937 18.86509472757866 9.399602308998684 0 0 0
1045 1 0.0820196203228902 18.86509458076432 6.244012526996068 0 0 0
1125 1 12.604172258441308 18.865082438657904 9.399639970042907 0 0 0
1269 1 12.604206756691427 18.865097676435216 15.710369303355598 0 0 0
977 1 6.343077678388467 18.865065714857106 3.0854874205896645 0 0 0
1053 1 12.604140085279536 18.865080234550316 6.2441513830278605 0 0 0
1921 1 18.86529751523156 12.603887625049833 3.085634471586317 0 0 0
1897 1 18.865310595323546 6.342859554862069 3.085479156012199 0 0 0
1825 1 18.865299125867793 6.342860033886256 -0.042141417683238654 0 0 0
973 1 0.08202225708075161 18.86508632779227 3.0854178140228687 0 0 0