LAMMPS data file via write_data, version 2 Aug 2023, timestep = 1076, units = metal

3601 atoms
3 atom types

0.0814194069644689 37.64923259303564 xlo xhi
0.08145252517739283 37.64919947482261 ylo yhi
-15.828856943717446 53.55950894371753 zlo zhi

Masses

1 183.84
2 1.008
3 4.0026

Atoms # atomic

2137 1 18.865102737277585 12.603334077703666 12.55508803087849 0 0 0
2 1 1.6467487266406526 1.646679009038485 1.5283652871737374 0 0 0
2017 1 18.865261101322208 0.08145252653209173 9.399758412848394 0 0 0
4 1 4.777224789736514 1.6466667922387583 1.5283780368370985 0 0 0
2041 1 18.86519980801058 6.342035868301293 9.399621465128831 0 0 0
6 1 7.907727647657641 1.6466193038769061 1.528427682910126 0 0 0
2029 1 18.865249094514294 3.2117984017391037 9.399729031644993 0 0 0
8 1 11.038310912345874 1.646537233409281 1.5285176006497192 0 0 0
157 1 0.08150390180706069 3.2119246932272087 6.244074975429381 0 0 0
10 1 14.169004833870552 1.646434953765737 1.5286267991237799 0 0 0
426 1 7.908080965005196 17.300013003899753 17.28780074934529 0 0 0
12 1 17.29982029854084 1.6463853521319416 1.5286794829102215 0 0 0
13 1 0.08151624761997599 3.2119207825048584 -0.04237113810055771 0 0 0
14 1 1.6467491920612423 4.777136155974746 1.528414753655629 0 0 0
15 1 3.2119817917618403 3.2119206893094714 -0.04237124839842976 0 0 0
16 1 4.77716716816576 4.777099188910276 1.528408265810763 0 0 0
17 1 6.342464149338327 3.2118551597906513 -0.04236979732259491 0 0 0
18 1 7.907613569246617 4.776963007795394 1.528409271153368 0 0 0
19 1 9.473003356450313 3.2116846284175042 -0.0423442462595792 0 0 0
20 1 11.038146147563204 4.776714385814594 1.5284334897124143 0 0 0
21 1 12.603638751634394 3.2114452374724256 -0.0423037932622165 0 0 0
22 1 14.16882225066589 4.776363850554617 1.5284999126789067 0 0 0
23 1 15.734388474260179 3.211166299153994 -0.042254090861308144 0 0 0
24 1 17.29974390191455 4.776203347501193 1.5285077073760323 0 0 0
25 1 0.08157642659066071 6.34240923433944 -0.042333302157414626 0 0 0
26 1 1.646749890905112 7.907638945170969 1.5285030368507637 0 0 0
27 1 3.211923142453263 6.342408696661431 -0.042332519713839764 0 0 0
28 1 4.777026044945749 7.907577061854624 1.5284763004317048 0 0 0
29 1 6.342292139568484 6.342290119552932 -0.04237276290955225 0 0 0
30 1 7.907336485605853 7.907357750778212 1.528383680036564 0 0 0
31 1 9.472730683717005 6.34194938793797 -0.04244406474956197 0 0 0
32 1 11.03773852636167 7.906907998099162 1.5282318954045637 0 0 0
33 1 12.603318149678993 6.341383387971566 -0.04254272787797979 0 0 0
34 1 14.168353694871227 7.906184880970548 1.528103681482859 0 0 0
35 1 15.734135584231383 6.3406182205090085 -0.04258083140671588 0 0 0
36 1 17.29950813530181 7.905864069189105 1.5279289335419837 0 0 0
37 1 0.08169186415545358 9.47296754913532 -0.04227647043120808 0 0 0
38 1 1.6467503828912509 11.038237720080398 1.5286270059056561 0 0 0
39 1 3.2118089967193373 9.472966680323237 -0.04227584945233007 0 0 0
40 1 4.776774728881556 11.03814897637813 1.52857928689342 0 0 0
41 1 6.341928814767922 9.472793228425422 -0.04237976045738519 0 0 0
42 1 7.906806560731005 11.037857282589528 1.5283439559273897 0 0 0
43 1 9.472109998492694 9.472288606925177 -0.04265182981272565 0 0 0
44 1 11.036870694511196 11.037194533245144 1.527837365476963 0 0 0
45 1 12.602516869144 9.471270612919431 -0.04308569176782333 0 0 0
46 1 14.167207947926542 11.03595869613036 1.5270851019705465 0 0 0
47 1 15.733372748496526 9.469440706075977 -0.04353433949157436 0 0 0
48 1 17.298625905233422 11.03516229858685 1.5261357190867846 0 0 0
49 1 0.0818672472131978 12.603641592844777 -0.04220531040857286 0 0 0
50 1 1.6467506984058933 14.16896690205455 1.5287861264085596 0 0 0
51 1 3.211633769609935 12.603640625438242 -0.04220540732711312 0 0 0
52 1 4.776428867715501 14.168878413688889 1.5287243775128971 0 0 0
53 1 6.34132587724695 12.60344227894373 -0.042400605297847005 0 0 0
54 1 7.906005052331307 14.168589086121349 1.5283481657999352 0 0 0
55 1 9.47090856178268 12.6028739771834 -0.04297444632559285 0 0 0
56 1 11.035412328315433 14.167860767179812 1.5273402732134658 0 0 0
57 1 12.600457874571182 12.601337227293607 -0.04423588978625361 0 0 0
58 1 14.164779556217239 14.166161995582375 1.5247287539736538 0 0 0
59 1 15.730388557618623 12.597090880445004 -0.0469569445555365 0 0 0
60 1 17.293937898448053 14.162430747713099 1.5188113038666626 0 0 0
425 1 6.3427280500742835 15.734688724752326 15.710206394950903 0 0 0
62 1 1.6467506990077918 17.299849613970757 1.5289013707932986 0 0 0
63 1 3.211404738146109 15.734435933053568 -0.04214738630581482 0 0 0
64 1 4.776146340782038 17.299813398231297 1.5288162496511384 0 0 0
65 1 6.340494564858323 15.734280631064728 -0.04243899041097335 0 0 0
66 1 7.9053256598626716 17.299695786404918 1.5282642756060614 0 0 0
67 1 9.469018734790488 15.73380296566162 -0.04338905986743878 0 0 0
68 1 11.034007706038636 17.299311317949183 1.526552488827403 0 0 0
69 1 12.59653726237498 15.732106471571466 -0.04604429585080232 0 0 0
70 1 14.161290452630025 17.29768751497966 1.521057203286482 0 0 0
71 1 15.723766543492472 15.725810690900387 -0.05415726607766502 0 0 0
72 1 17.282494147031308 17.288174688375744 1.5032806540663284 0 0 0
424 1 4.77741863316824 17.300007667610245 17.2879099329498 0 0 0
74 1 1.646748314040177 1.6466811332317857 4.666976645335248 0 0 0
423 1 3.2120725913469355 15.73468490747946 15.71030011072045 0 0 0
76 1 4.777232454938296 1.6466711181263596 4.666995625864002 0 0 0
1801 1 18.865253209764827 0.08145252675204596 -0.0421731740599143 0 0 0
78 1 7.907738539927493 1.6466446447897984 4.667049363743814 0 0 0
97 1 0.0815610671795281 6.342357436009057 3.0854427346245585 0 0 0
80 1 11.038317776398122 1.646595010881663 4.6671249554277185 0 0 0
241 1 0.08149409757830739 6.342538274409299 9.399681454053638 0 0 0
82 1 14.16901522923892 1.6465537685375937 4.667194768580371 0 0 0
85 1 0.08152361066566294 3.211894028625407 3.085377898720904 0 0 0
84 1 17.299806561818098 1.6465223353106124 4.667235008172012 0 0 0
422 1 1.6467473720448362 17.300012531150156 17.287947283114573 0 0 0
86 1 1.6467489286784744 4.7771497359739845 4.667034751406594 0 0 0
87 1 3.21197410887201 3.211893474621431 3.085378096812594 0 0 0
88 1 4.77719170143414 4.777120944039914 4.667037626737465 0 0 0
89 1 6.342433193176271 3.211849391093251 3.085396677019783 0 0 0
90 1 7.907660485673043 4.777044241606508 4.667041246252412 0 0 0
91 1 9.472943776895296 3.2117467406824742 3.0854449115748848 0 0 0
92 1 11.038209230696578 4.776902334106769 4.667048034085235 0 0 0
93 1 12.60356178063068 3.2115992245725695 3.085522821109016 0 0 0
94 1 14.168896102263163 4.77675597780651 4.667056221416826 0 0 0
95 1 15.734344343882444 3.2114929061549256 3.0855740469629005 0 0 0
96 1 17.299744141321646 4.776643787205308 4.6670428797398404 0 0 0
421 1 0.08142325729129951 15.73468493410921 15.710299643329723 0 0 0
98 1 1.6467495599906776 7.907658169714047 4.667128790838998 0 0 0
99 1 3.211937704366444 6.3423566295012215 3.0854434159843755 0 0 0
100 1 4.777109706829763 7.90761597871133 4.66710610672161 0 0 0
101 1 6.34232455072619 6.342269773555117 3.0854217166527937 0 0 0
102 1 7.907507064725663 7.90749487469982 4.667025293866013 0 0 0
103 1 9.472763920208664 6.342074893703284 3.085381674165833 0 0 0
104 1 11.037981366561125 7.907267480319407 4.666888414516099 0 0 0
105 1 12.603325575362899 6.3417610847180015 3.0853446254131933 0 0 0
106 1 14.168632863633661 7.9069671034224225 4.666688165152756 0 0 0
107 1 15.734152865945768 6.341490571721606 3.0852638233496803 0 0 0
108 1 17.299543626222935 7.906680820288899 4.666492306725979 0 0 0
420 1 17.299978149646744 14.16937446470696 17.287645197168573 0 0 0
110 1 1.6467502777261898 11.038258507167221 4.667259126241986 0 0 0
111 1 3.211856988729738 9.472889021807843 3.0855572119344314 0 0 0
112 1 4.776980736177238 11.038208325760573 4.6672040386883005 0 0 0
113 1 6.342096138695227 9.47276284869386 3.0854733116144155 0 0 0
114 1 7.907245533254289 11.038058130507325 4.666996298532477 0 0 0
115 1 9.472383575181867 9.472472974510872 3.085262376955832 0 0 0
116 1 11.037574460618131 11.037761219218293 4.666553834670702 0 0 0
117 1 12.60279863567684 9.47195786680986 3.084919463017253 0 0 0
118 1 14.168058429151072 11.037209882027133 4.665889855601605 0 0 0
119 1 15.733627538636556 9.47142252474787 3.084392222577846 0 0 0
120 1 17.298859770612804 11.036272851268865 4.665307729590442 0 0 0
419 1 15.734539389496637 12.603941925134489 15.710166325277822 0 0 0
122 1 1.6467505683150705 14.168994559067341 4.667395859028638 0 0 0
123 1 3.211749873403057 12.603541885648117 3.085706436235337 0 0 0
124 1 4.776849323641388 14.168949090094513 4.667306523851107 0 0 0
125 1 6.341760743525953 12.603391801377386 3.0855460815067484 0 0 0
126 1 7.906961513348146 14.168825130769033 4.666933366662574 0 0 0
127 1 9.471768260870284 12.603047287107477 3.085072914948348 0 0 0
128 1 11.037028415345633 14.168520693523112 4.666074345711647 0 0 0
129 1 12.601847167773476 12.602379223925139 3.084031053209463 0 0 0
130 1 14.166826444644684 14.167549520236788 4.6646059924544865 0 0 0
131 1 15.732291911127598 12.601357309377741 3.0822605450655938 0 0 0
132 1 17.296574626308562 14.164490869070686 4.6633274872962165 0 0 0
418 1 14.169329490782816 14.169388872556919 17.287673383471724 0 0 0
134 1 1.6467507578782148 17.29986448308714 4.66747927505123 0 0 0
135 1 3.2116444373231667 15.73436301095186 3.0858444996764827 0 0 0
136 1 4.776762739014474 17.29984649849074 4.667367294267318 0 0 0
137 1 6.341423646527134 15.734266819883745 3.0856025328628514 0 0 0
138 1 7.906779837589107 17.299804477245686 4.666866042661734 0 0 0
139 1 9.471123244310656 15.734046859889052 3.0848086526030793 0 0 0
140 1 11.036714078430812 17.29969540291361 4.66565913837025 0 0 0
141 1 12.600573096075033 15.73351927724017 3.082860886955842 0 0 0
142 1 14.166054981842274 17.298787305434164 4.663767713013576 0 0 0
143 1 15.728720123863022 15.732104362921113 3.0790421599353412 0 0 0
144 1 17.295152374203987 17.29036520000052 4.665266668768046 0 0 0
2113 1 18.865246954406917 6.3423774157964665 12.555053726745655 0 0 0
146 1 1.6467476319739907 1.6466975827518984 7.821949918075419 0 0 0
417 1 12.603922708089408 12.604012561886986 15.710133040771154 0 0 0
148 1 4.777264095495067 1.646695918373051 7.82196874398032 0 0 0
61 1 0.08209647593392695 15.734436439709274 -0.04214655135869609 0 0 0
150 1 7.907805920217232 1.6466860840255382 7.821994766987247 0 0 0
1993 1 18.863969015674396 12.59863437824811 6.243682385689535 0 0 0
152 1 11.03840546279343 1.6466593888564116 7.822039451128916 0 0 0
416 1 11.038698252575498 14.169386552879445 17.287755618161462 0 0 0
154 1 14.169088801253977 1.6466309403055146 7.822076817093881 0 0 0
1969 1 18.865183643452326 6.341762502438279 6.243881292379128 0 0 0
156 1 17.299846056949445 1.6466062126963532 7.822099520131213 0 0 0
415 1 9.473314056991152 12.604033738370664 15.71018726649272 0 0 0
158 1 1.6467483543305483 4.7772087237618965 7.8219919169315535 0 0 0
159 1 3.2119926214509626 3.211924447928238 6.244075374160801 0 0 0
160 1 4.777248902591455 4.777203061699278 7.821994660662519 0 0 0
161 1 6.342488981647601 3.2119040681741695 6.244097698673036 0 0 0
162 1 7.907773286079401 4.777169374603332 7.821992782392321 0 0 0
163 1 9.473033331524444 3.211855511409468 6.244127263349829 0 0 0
164 1 11.038346964488998 4.777089628512478 7.821989832133361 0 0 0
165 1 12.603657943414637 3.2117787081734637 6.244162202466337 0 0 0
166 1 14.169011778677262 4.7769762833783815 7.8219741410284 0 0 0
167 1 15.73439740536039 3.211707915879315 6.244181403881321 0 0 0
168 1 17.29979461194462 4.776862715501569 7.821975683439726 0 0 0
181 1 0.08156191764766925 9.472999431541616 6.244226121746427 0 0 0
170 1 1.6467490530606383 7.90777150261594 7.8220537386523565 0 0 0
171 1 3.2119697034193484 6.342428527237127 6.2441373917822895 0 0 0
172 1 4.777211872554986 7.9077572030141345 7.822034227235229 0 0 0
173 1 6.3424275163796615 6.342387997809343 6.244117899608739 0 0 0
174 1 7.907697833084377 7.9076971176698905 7.821965279397345 0 0 0
175 1 9.472930333470238 6.3422846528761205 6.244069038523403 0 0 0
176 1 11.038213010239783 7.907556444263548 7.821859918107275 0 0 0
177 1 12.603517311545946 6.342120765781329 6.244002959338981 0 0 0
178 1 14.168807567874158 7.907270066980093 7.821759376988407 0 0 0
179 1 15.73426768898003 6.341913502947316 6.243924456144318 0 0 0
180 1 17.299615757772802 7.906871109019207 7.821743391281691 0 0 0
219 1 3.2120141575900307 0.08145252589092422 9.399641404394133 0 0 0
182 1 1.6467497319253468 11.038403985591804 7.822130891090052 0 0 0
183 1 3.2119374720627714 9.472998741186181 6.2442267022127504 0 0 0
184 1 4.77717308803426 11.038386881412068 7.822076125332241 0 0 0
185 1 6.3423278315250124 9.472940558987338 6.244143240915962 0 0 0
186 1 7.907593693014971 11.038324505430994 7.821908514858821 0 0 0
187 1 9.47275210097548 9.472802073839901 6.243954448416974 0 0 0
188 1 11.03796217185187 11.038119482091695 7.821654965694652 0 0 0
189 1 12.60324167933317 9.472523448915037 6.243684802957046 0 0 0
190 1 14.168265392343107 11.037493224311989 7.821524876037049 0 0 0
191 1 15.733889094109902 9.471966808400632 6.243447288750862 0 0 0
192 1 17.298773603101345 11.035970188566692 7.821958205158088 0 0 0
2101 1 18.865278590526845 3.211921957141265 12.55509973070506 0 0 0
194 1 1.6467502438426973 14.169128346142152 7.822182041915685 0 0 0
195 1 3.2118980089084537 12.603671109573094 6.24431993964491 0 0 0
196 1 4.7771474311618904 14.169118551492431 7.822101089490831 0 0 0
197 1 6.342204798880767 12.603615657623466 6.2441579542364885 0 0 0
198 1 7.907509175671804 14.169088190402347 7.821815180200202 0 0 0
199 1 9.47249811373752 12.603470318082197 6.243769990218486 0 0 0
200 1 11.03762373548134 14.168884662747965 7.821398379108067 0 0 0
201 1 12.602690170209513 12.603024364295639 6.243192486120357 0 0 0
202 1 14.166749127672892 14.16777025613277 7.821658869877798 0 0 0
203 1 15.732794326372067 12.601697807581818 6.24285303498324 0 0 0
204 1 17.293503795562224 14.162338380106474 7.826587088668084 0 0 0
2161 1 18.865304568423845 0.08145252598045971 15.71043797989152 0 0 0
206 1 1.6467504051548152 17.29992251922745 7.822210177615949 0 0 0
207 1 3.2118769405858294 15.734463955106563 6.244388841042655 0 0 0
208 1 4.777170732042968 17.299921402740154 7.8221007891820005 0 0 0
209 1 6.342129061390601 15.734433646407394 6.244148238650422 0 0 0
210 1 7.907615912023483 17.29993045670296 7.82167864282061 0 0 0
211 1 9.472327588701384 15.734360750218915 6.243534550936666 0 0 0
212 1 11.038090851120835 17.29997174472979 7.820873641943908 0 0 0
213 1 12.601989265763255 15.733963761891863 6.242638377872762 0 0 0
214 1 14.168493784126314 17.30015562231369 7.819816451523356 0 0 0
215 1 15.729125314366811 15.731459382253686 6.2432716867155085 0 0 0
216 1 17.298224851000345 17.300213081699695 7.820569820541885 0 0 0
2185 1 18.865288792301996 6.342605321092219 15.710365643752436 0 0 0
218 1 1.646746937713597 1.646730961034156 10.977356269367021 0 0 0
361 1 0.08143771241571329 0.08145252561361006 15.710379075245406 0 0 0
220 1 4.777311905982487 1.6467269947501744 10.977361030356175 0 0 0
1933 1 18.851445979169853 15.7253517648567 3.0678881041386363 0 0 0
222 1 7.9078860562570235 1.6467143178674697 10.97737742441129 0 0 0
169 1 0.08152841369798836 6.342428972158768 6.244136820736665 0 0 0
224 1 11.038499511013454 1.6466968151997983 10.97739360905525 0 0 0
1909 1 18.864986449431118 9.47139866395366 3.084240921764082 0 0 0
226 1 14.169164867937468 1.6466717508439155 10.977423664612866 0 0 0
1897 1 18.865166868543756 6.341437504811468 3.085215112352115 0 0 0
228 1 17.299892265542642 1.646661313748175 10.977437462924728 0 0 0
414 1 7.908058946451278 14.169382442396657 17.287851028445722 0 0 0
230 1 1.6467474743311845 4.77729759898491 10.977367199759035 0 0 0
231 1 3.212015006670923 3.211978333707513 9.399650199895595 0 0 0
232 1 4.7772951982889955 4.777290915764629 10.977369297489652 0 0 0
233 1 6.3425586263427425 3.211968104265001 9.399661440618482 0 0 0
234 1 7.907859267245793 4.777258903055585 10.977369725844037 0 0 0
235 1 9.473130233247343 3.2119372965367776 9.399677511255685 0 0 0
236 1 11.038456385167692 4.777197490686049 10.977377428277519 0 0 0
237 1 12.603763705721418 3.2118860564934866 9.399694061325688 0 0 0
238 1 14.169101496087551 4.777102884230422 10.977399930939962 0 0 0
239 1 15.734466733997195 3.211825943025953 9.399715603339065 0 0 0
240 1 17.29984916917737 4.777058510236274 10.977398840227043 0 0 0
413 1 6.342690456221821 12.604035599831866 15.71026772264792 0 0 0
242 1 1.6467483699260277 7.907903646694184 10.977394701949835 0 0 0
243 1 3.212002601005218 6.3425380338450985 9.399681990745037 0 0 0
244 1 4.777274876009106 7.907896720216055 10.97738031656821 0 0 0
245 1 6.342522568552468 6.342516694904894 9.399668055788341 0 0 0
246 1 7.907807962958972 7.907845885591374 10.977346030441907 0 0 0
247 1 9.473067012927132 6.3424512315082975 9.399641845686745 0 0 0
248 1 11.038338336710419 7.907719405980178 10.977331007486956 0 0 0
249 1 12.603654992699068 6.342314601328148 9.399615139792703 0 0 0
250 1 14.168890660186083 7.907456386878593 10.977393005508365 0 0 0
251 1 15.73433954952855 6.342109743122378 9.399623552513159 0 0 0
252 1 17.29972670995498 7.907359869200417 10.977356711702319 0 0 0
2053 1 18.86503803535116 9.471979944396814 9.399629031216723 0 0 0
254 1 1.6467489361140464 11.03856053735087 10.977414237036765 0 0 0
255 1 3.21199231994055 9.473150114962879 9.399725482468384 0 0 0
256 1 4.777274057700056 11.03855089741211 10.977375100548807 0 0 0
257 1 6.342487107008921 9.473122304058542 9.399662545436914 0 0 0
258 1 7.907772647953036 11.038501594713404 10.977293193281008 0 0 0
259 1 9.472963165554948 9.473023723904769 9.39955871124314 0 0 0
260 1 11.038146847730603 11.038311632609751 10.977277584822332 0 0 0
261 1 12.603406603930948 9.472745445360342 9.399498477526578 0 0 0
262 1 14.168376138772508 11.037732931509469 10.977608357844947 0 0 0
263 1 15.73390849573072 9.472091430166296 9.399679897576869 0 0 0
264 1 17.29944257715536 11.037577311940618 10.977503625807785 0 0 0
412 1 4.777403203139026 14.169371242466449 17.28792927464319 0 0 0
266 1 1.6467493415081518 14.169249992739045 10.977406688455458 0 0 0
267 1 3.211990885937682 12.60382842810523 9.399750213435937 0 0 0
268 1 4.777310542119999 14.169250118321164 10.977343323166142 0 0 0
269 1 6.34246549485714 12.603813755396564 9.399633555145337 0 0 0
270 1 7.907862031946291 14.16926532696281 10.97715161523164 0 0 0
271 1 9.472834307589059 12.603722054868179 9.399443765056102 0 0 0
272 1 11.038338931684395 14.169246012522454 10.9768887275289 0 0 0
273 1 12.602847082653009 12.603253376606027 9.39948346077495 0 0 0
274 1 14.168641790183962 14.16899075612042 10.976928999278309 0 0 0
275 1 15.73226118626208 12.601497882722548 9.400813991192509 0 0 0
276 1 17.298921505914546 14.168114309098062 10.978090615838314 0 0 0
411 1 3.2120605750548643 12.604028564626178 15.710325988024007 0 0 0
278 1 1.6467497852249735 17.299959774039912 10.977402225415847 0 0 0
279 1 3.212005274584978 15.734566251866646 9.399755164051253 0 0 0
280 1 4.7773329382849905 17.29996725649122 10.977325940182885 0 0 0
281 1 6.342517966063048 15.734581347172794 9.399572043468124 0 0 0
282 1 7.907924767749707 17.29998289527263 10.977047979463407 0 0 0
283 1 9.473014799256553 15.734607075716093 9.399149673144317 0 0 0
284 1 11.038477095213734 17.29998805069645 10.97660832966111 0 0 0
285 1 12.60341237739937 15.734600082810246 9.39862870273995 0 0 0
286 1 14.16897110187455 17.299974428193362 10.976191750055516 0 0 0
287 1 15.733516292278763 15.734198252791892 9.398843918424246 0 0 0
288 1 17.299666926478068 17.300159389761717 10.97601313916424 0 0 0
410 1 1.6467471797415274 14.169367003515228 17.28796531596293 0 0 0
290 1 1.6467462735525047 1.6467556366695268 14.132715653747283 0 0 0
409 1 0.08143465568207174 12.604028774377628 15.710325655571918 0 0 0
292 1 4.777348818204513 1.6467552255497004 14.132721397572357 0 0 0
408 1 17.299951632204746 11.038662024117647 17.287859248433648 0 0 0
294 1 7.907955938082741 1.6467444389525088 14.132736134393783 0 0 0
2197 1 18.865274823660425 9.473211582768242 15.710281897000879 0 0 0
296 1 11.038576341221006 1.6467266134388234 14.132754149294819 0 0 0
121 1 0.08175086573637483 12.60354243125379 3.085706424551947 0 0 0
298 1 14.169240580528486 1.6467146213693982 14.132764351292458 0 0 0
407 1 15.734544756016694 9.473231093693402 15.710313879867266 0 0 0
300 1 17.299939211343734 1.6467107281191937 14.13277624643901 0 0 0
301 1 0.08145852621523351 3.212037095819765 12.555043993897348 0 0 0
302 1 1.646746621026868 4.777368679391749 14.13271935297149 0 0 0
303 1 3.212035024973729 3.212037205083156 12.55504409273114 0 0 0
304 1 4.7773366512132736 4.777364332921975 14.132717260848217 0 0 0
305 1 6.342617283692185 3.212023933618372 12.555051250876241 0 0 0
306 1 7.907928025440218 4.777336464562716 14.132724004078469 0 0 0
307 1 9.473217670532808 3.211992692288795 12.555063343237244 0 0 0
308 1 11.038542516135031 4.777283189882841 14.132745455811035 0 0 0
309 1 12.60385093979065 3.211949357393798 12.555086971734982 0 0 0
310 1 14.169216240650877 4.777249740929599 14.132755339823762 0 0 0
311 1 15.734545008846885 3.211925212470655 12.55509680427286 0 0 0
312 1 17.299920024212337 4.777240943533588 14.132747765529091 0 0 0
406 1 14.169275582927684 11.038676168396554 17.287897565691264 0 0 0
314 1 1.6467472778336727 7.908004845636219 14.132717478496277 0 0 0
315 1 3.2120261314993157 6.3426431195836175 12.555052736774876 0 0 0
316 1 4.777325725441388 7.908000892648767 14.132709513959094 0 0 0
317 1 6.342588794672175 6.342622784016024 12.555044443306837 0 0 0
318 1 7.907895420244755 7.907963372429812 14.132703687624304 0 0 0
319 1 9.473159640974393 6.342558503938206 12.555046579051185 0 0 0
320 1 11.038475368182175 7.907875743938311 14.132726448615024 0 0 0
321 1 12.603758577158331 6.3424472315009455 12.555086008563228 0 0 0
322 1 14.169136462986383 7.907808398676374 14.132728643565605 0 0 0
323 1 15.734467786064805 6.342394011751238 12.555069788636567 0 0 0
324 1 17.299867985535535 7.907783230522308 14.132694920598443 0 0 0
2005 1 18.84675308624891 15.71434604895219 6.262139284703054 0 0 0
326 1 1.6467480106022179 11.038668049725771 14.13270598006936 0 0 0
327 1 3.2120217370432496 9.473288097073356 12.555056738731668 0 0 0
328 1 4.7773374671169035 11.038667750129708 14.132677344582866 0 0 0
329 1 6.342570282474818 9.473264181725112 12.555025097828828 0 0 0
330 1 7.907926681263427 11.038653426724135 14.132622337756148 0 0 0
331 1 9.473088263508657 9.473175139341873 12.555013286125604 0 0 0
332 1 11.038488050008404 11.038589074879383 14.132598431971733 0 0 0
333 1 12.603578114979756 9.472972009481015 12.555091867011363 0 0 0
334 1 14.169029306460338 11.038430629013812 14.13269651101702 0 0 0
335 1 15.734316804970913 9.472852757556723 12.555064930868495 0 0 0
336 1 17.299809167641236 11.038372356845178 14.13264298350514 0 0 0
109 1 0.08164308237552644 9.472889788923954 3.0855566711054694 0 0 0
338 1 1.6467484277144482 14.169336180333218 14.132685309473857 0 0 0
339 1 3.2120363845205007 12.603960297672149 12.555041491980093 0 0 0
340 1 4.7773727072896905 14.169335744411674 14.13263075615189 0 0 0
341 1 6.342619896161376 12.603954925852214 12.554953983449577 0 0 0
342 1 7.907994925848167 14.169343024860005 14.132507234871584 0 0 0
343 1 9.473172264343514 12.603936981059766 12.554835301720743 0 0 0
344 1 11.038597971677566 14.16934656095606 14.13235396535652 0 0 0
345 1 12.603637513745118 12.603815493863573 12.554812904196996 0 0 0
346 1 14.169181724963874 14.169317371640131 14.132275975093197 0 0 0
347 1 15.734066874038053 12.603425525563885 12.555181168099399 0 0 0
348 1 17.299819290400087 14.169186265731451 14.132433989668652 0 0 0
349 1 0.08144190740425553 15.734633339070696 12.555014992362803 0 0 0
350 1 1.6467484920253634 17.299994620544968 14.132655833782831 0 0 0
351 1 3.212056196293209 15.734633301740152 12.55501563853662 0 0 0
352 1 4.7773927386177535 17.299996044370676 14.13260109101036 0 0 0
353 1 6.34267243816697 15.734646849538208 12.55488551347281 0 0 0
354 1 7.9080439262479665 17.300007615843356 14.132424820880475 0 0 0
355 1 9.473274632714746 15.73466225217272 12.554643640432607 0 0 0
356 1 11.03867520535556 17.30001366803873 14.132175701148965 0 0 0
357 1 12.60383587523389 15.734663333507687 12.554371482795299 0 0 0
358 1 14.169269599243375 17.30001374678707 14.131945629766099 0 0 0
359 1 15.734424301759582 15.734646376798318 12.554284591458728 0 0 0
360 1 17.29993749010764 17.300052859363547 14.131763395370921 0 0 0
432 1 17.300003113677572 17.300033800471567 17.28739461210161 0 0 0
362 1 1.646745867149341 1.6467737953854908 17.288033005728934 0 0 0
431 1 15.734633173132504 15.734714730083782 15.709787503448593 0 0 0
364 1 4.777370147488634 1.6467709068054124 17.288037397275847 0 0 0
430 1 14.169361687910135 17.30002497614735 17.287510519536117 0 0 0
366 1 7.907998623106564 1.646767403420293 17.288052571746857 0 0 0
429 1 12.60399776885329 15.734705497375735 15.709902400743001 0 0 0
368 1 11.038636521906541 1.6467616380416121 17.2880643505459 0 0 0
428 1 11.038729248892354 17.300021005247945 17.287655997977666 0 0 0
370 1 14.169287668885183 1.6467558442684622 17.288070619151824 0 0 0
427 1 9.4733737680452 15.73469951321652 15.710059915182002 0 0 0
372 1 17.29996739829068 1.6467527749861472 17.288075060508042 0 0 0
405 1 12.603860057283148 9.473261529091321 15.71034547715156 0 0 0
374 1 1.646745999864586 4.777415199450988 17.288028633048533 0 0 0
375 1 3.212053041073418 3.2120786688278047 15.710378890251238 0 0 0
376 1 4.7773674267004935 4.777412414996929 17.288031341705416 0 0 0
377 1 6.342662794643393 3.2120709778150807 15.71038783882997 0 0 0
378 1 7.90798890192954 4.777400612446116 17.288035931090633 0 0 0
379 1 9.47328256313593 3.2120513639170456 15.710401575441832 0 0 0
380 1 11.038621261881358 4.7773823756773925 17.288045231911738 0 0 0
381 1 12.6039306068467 3.2120299034074953 15.710410952869138 0 0 0
382 1 14.169284807591948 4.777367008741953 17.288052191524773 0 0 0
383 1 15.734607672453999 3.2120198370657826 15.710418937469342 0 0 0
384 1 17.299970055719285 4.777363810520648 17.2880486181103 0 0 0
404 1 11.038646912947891 11.038713965416042 17.287900299676167 0 0 0
386 1 1.6467462381300164 7.9080610946653564 17.288013040072748 0 0 0
387 1 3.2120500955843627 6.342714045922304 15.710373253608502 0 0 0
388 1 4.77737358153892 7.908064526075832 17.28800909505228 0 0 0
389 1 6.342650203230679 6.34270378478579 15.710373720046949 0 0 0
390 1 7.907992773254527 7.908053868963465 17.288003335486263 0 0 0
391 1 9.473256608299074 6.342668071816772 15.710377853883386 0 0 0
392 1 11.038612325327206 7.908023935579648 17.288009610979014 0 0 0
393 1 12.603900728203687 6.342624697595043 15.710391076444164 0 0 0
394 1 14.169275003257711 7.908001606971092 17.28800147480877 0 0 0
395 1 15.734583482695985 6.3426069266710385 15.710387452329048 0 0 0
396 1 17.29995515779745 7.907994476110699 17.28798011277203 0 0 0
397 1 0.08144206734105436 9.47336584519538 15.710353163816947 0 0 0
398 1 1.6467466503010864 11.038712729795758 17.287984719592817 0 0 0
399 1 3.212051973666106 9.47336580054334 15.710353398043244 0 0 0
400 1 4.777387752369186 11.038720776801156 17.287970459260936 0 0 0
401 1 6.342660624626289 9.473366741211196 15.71033392880635 0 0 0
402 1 7.9080203572752765 11.038726244499685 17.287934321039792 0 0 0
403 1 9.473259628168286 9.473335530580776 15.710317438154169 0 0 0
371 1 15.734606352215202 0.08145252595068327 15.71043006847739 0 0 0
1981 1 18.86503437396518 9.471382930308142 6.243354619200085 0 0 0
229 1 0.08148007026328825 3.2119784059156875 9.399649942822432 0 0 0
253 1 0.08150588607182925 9.473150464418637 9.399724925550446 0 0 0
363 1 3.2120542973735002 0.08145252561626767 15.710378943869554 0 0 0
151 1 9.473060688597913 0.0814525263528626 6.244142385305166 0 0 0
1 1 0.08149820080445584 0.08145252596541856 -0.04238334205422027 0 0 0
205 1 0.08162389826021252 15.73446424435751 6.244388907747815 0 0 0
295 1 9.473232374832651 0.08145252598142473 12.555068329707746 0 0 0
277 1 0.08149462101814975 15.734566550636321 9.399754751552496 0 0 0
5 1 6.342509478027637 0.08145252607044601 -0.04236337128317631 0 0 0
291 1 3.2120421479065633 0.08145252573218091 12.555043160899247 0 0 0
289 1 0.08145090586817566 0.08145252572923954 12.555043064656521 0 0 0
227 1 15.734496154503262 0.08145252647999073 9.399749200833464 0 0 0
1885 1 18.86521914975478 3.2114499440870943 3.0855992634910163 0 0 0
223 1 9.473140853428811 0.08145252619840278 9.399682160983721 0 0 0
1861 1 18.864289107248574 15.7302882416179 -0.051375937480787906 0 0 0
2221 1 18.865313395202932 15.734703597764398 15.709776731433566 0 0 0
2125 1 18.865199075311764 9.472806426597925 12.55502282594275 0 0 0
9 1 12.603726929599635 0.08145252663052636 -0.042238413769562035 0 0 0
265 1 0.08150839982896071 12.603828732330324 9.399749708879876 0 0 0
325 1 0.08147467026341544 9.4732883099641 12.555056306114945 0 0 0
149 1 6.342503238445906 0.08145252615264847 6.244082236698373 0 0 0
11 1 15.734458526637962 0.0814525267212665 -0.04218726449136871 0 0 0
77 1 6.342475207394311 0.08145252620149365 3.0853848358539464 0 0 0
73 1 0.08150908461293516 0.0814525260469452 3.0853474331923585 0 0 0
337 1 0.08146103787413002 12.603960465101629 12.55504095628846 0 0 0
2065 1 18.86451382472095 12.601625974111053 9.400262667419383 0 0 0
1945 1 18.86524126087142 0.08145252671311405 6.244269031484876 0 0 0
1813 1 18.86523043445412 3.2111587657975487 -0.042246367673864006 0 0 0
1825 1 18.865150469113967 6.340733155593282 -0.042638845554190626 0 0 0
1837 1 18.864962929498454 9.470103494857394 -0.04353544669918051 0 0 0
1849 1 18.86465793213668 12.599397688215367 -0.04568254575099113 0 0 0
1873 1 18.86523293626606 0.08145252679466349 3.085678311123596 0 0 0
1921 1 18.864151531314445 12.60090919935677 3.0818763776403157 0 0 0