LAMMPS data file via write_data, version 2 Aug 2023, timestep = 598, units = metal

3601 atoms
3 atom types

0.08142164651376291 37.64923035348635 xlo xhi
0.08145648366550864 37.64919551633453 ylo yhi
-15.828495237352865 53.55914723735286 zlo zhi

Masses

1 183.84
2 1.008
3 4.0026

Atoms # atomic

361 1 0.08142986923841278 0.08145648432147999 15.710579573816137 0 0 0
2 1 1.6467512419943688 1.6466827034985256 1.5288775375724346 0 0 0
1837 1 18.864953015544522 9.470054165122113 -0.0438794508426761 0 0 0
4 1 4.777224894331155 1.6466559170220512 1.5288497242791332 0 0 0
2185 1 18.865307973895415 6.342650884865157 15.710188915763322 0 0 0
6 1 7.907729452180392 1.6466144976135197 1.5287891360348203 0 0 0
181 1 0.08154987014944481 9.473054160349845 6.244338706756329 0 0 0
8 1 11.03830649635822 1.6465426018154234 1.5287275755888434 0 0 0
169 1 0.08151376294053847 6.342484605343913 6.244385563755675 0 0 0
10 1 14.168989949589928 1.646442785665852 1.5286989603118082 0 0 0
426 1 7.908126030196397 17.30002622772764 17.287611054662175 0 0 0
12 1 17.29981635751577 1.6463813410255597 1.5286744655210744 0 0 0
13 1 0.08153831266470492 3.2118745262918122 -0.041922707098998264 0 0 0
14 1 1.6467502952492097 4.777128070794456 1.528811984462516 0 0 0
15 1 3.211964447707755 3.21187359859109 -0.04192163598312665 0 0 0
16 1 4.777152697823678 4.777080306160273 1.5287844347904205 0 0 0
17 1 6.342417389418727 3.2117985168481598 -0.041983753314859484 0 0 0
18 1 7.907603478013373 4.776952696651197 1.528688426732214 0 0 0
19 1 9.472935179935599 3.211660045928956 -0.042088820334211546 0 0 0
20 1 11.038132501888565 4.776720535771471 1.5285511612749623 0 0 0
21 1 12.603569956823943 3.2114222024599597 -0.04220515727290909 0 0 0
22 1 14.16881314687315 4.7763681560566456 1.5284716484523708 0 0 0
23 1 15.734342272151931 3.211125200787188 -0.042277674383518864 0 0 0
24 1 17.299734624978186 4.77619076014759 1.5283771296128896 0 0 0
25 1 0.08159188252549145 6.3423481807367645 -0.04201825936544151 0 0 0
26 1 1.6467488201531864 7.907637950556065 1.52874630484958 0 0 0
27 1 3.2119071710956306 6.342346718678104 -0.04201830892039098 0 0 0
28 1 4.777018160432602 7.9075606134467975 1.5286872212705096 0 0 0
29 1 6.3422384149043785 6.3421919615605935 -0.0421075369258854 0 0 0
30 1 7.907325937343167 7.9073443093939435 1.5284946681030542 0 0 0
31 1 9.472653035334563 6.341898775135557 -0.04231459762687451 0 0 0
32 1 11.03772692348072 7.906910621751292 1.5281979422871523 0 0 0
33 1 12.603253685220055 6.341348459792441 -0.04256429145640512 0 0 0
34 1 14.168342915058364 7.906192189246458 1.5279484274151853 0 0 0
35 1 15.734083940424767 6.34056158591663 -0.04272591803355844 0 0 0
36 1 17.299509402918762 7.905869988919548 1.5276864027632033 0 0 0
37 1 0.08170274598959822 9.472909678222042 -0.042111888362317766 0 0 0
38 1 1.646747891128726 11.038224500946345 1.528733169613694 0 0 0
39 1 3.2117929100770786 9.472908149940453 -0.04211303055833148 0 0 0
40 1 4.77677721202951 11.038133422476584 1.5286171173820604 0 0 0
41 1 6.341898506734948 9.472687506952683 -0.04230207511295457 0 0 0
42 1 7.906803637795987 11.037842807973812 1.5282937457702068 0 0 0
43 1 9.472062338816688 9.472239532091416 -0.042688198750640685 0 0 0
44 1 11.036853859878379 11.03718068214421 1.5276831559930635 0 0 0
45 1 12.602470699289254 9.471222164873712 -0.043268550823463814 0 0 0
46 1 14.16720228977244 11.035960988492944 1.5268013121982873 0 0 0
47 1 15.733331675529787 9.469378679817487 -0.04381463690193245 0 0 0
48 1 17.298624479196977 11.035190083777083 1.5257612996985477 0 0 0
49 1 0.08189041856781863 12.60358411882737 -0.042189323996469345 0 0 0
50 1 1.6467468774068315 14.16894766359103 1.5287907776058556 0 0 0
51 1 3.2116027977115076 12.603582995686551 -0.04219119899084165 0 0 0
52 1 4.7764107024108995 14.168856590934437 1.5286267203214976 0 0 0
53 1 6.341286751667217 12.603357418446965 -0.042487577009044986 0 0 0
54 1 7.905966104609691 14.168574221347761 1.5281830950802067 0 0 0
55 1 9.470843171272469 12.60283593920866 -0.043136453132311986 0 0 0
56 1 11.035366240699917 14.167860918956475 1.5270788578688448 0 0 0
57 1 12.600359963434183 12.601274129425164 -0.044525165632831126 0 0 0
58 1 14.164723586009872 14.166185917596819 1.5243133012465593 0 0 0
59 1 15.73028702494755 12.597081070977652 -0.04736788313401215 0 0 0
60 1 17.293823744291416 14.162403213394635 1.5182844384383114 0 0 0
425 1 6.342768333030213 15.734710244765935 15.710067197004568 0 0 0
62 1 1.6467463901566417 17.29984065911132 1.5288469391493642 0 0 0
63 1 3.211346354423261 15.734400417074053 -0.04222144353095166 0 0 0
64 1 4.7761122822270625 17.299812068075443 1.5286483776888735 0 0 0
65 1 6.34042189924401 15.734238131281236 -0.04262423844651275 0 0 0
66 1 7.905259815623967 17.299686449812697 1.5280531757994544 0 0 0
67 1 9.468916405830178 15.733786070835222 -0.04361402908328192 0 0 0
68 1 11.033935636658185 17.29928806145069 1.526263679241393 0 0 0
69 1 12.596450740610845 15.732103127433769 -0.046391102910804276 0 0 0
70 1 14.161202728030643 17.2977327536856 1.5206752008709048 0 0 0
71 1 15.723797088886034 15.726009232480031 -0.05440164210385673 0 0 0
72 1 17.28268427003705 17.288519397995493 1.5032018414558095 0 0 0
424 1 4.777445240668618 17.300022962825153 17.28776533327915 0 0 0
74 1 1.6467508591395483 1.646696896016455 4.667437017446256 0 0 0
423 1 3.212091907070257 15.73470696476637 15.710183385885914 0 0 0
76 1 4.777246848745526 1.6466828420846384 4.66741359247732 0 0 0
97 1 0.08155941286741353 6.342384872174486 3.0857484231428556 0 0 0
78 1 7.907782853648891 1.646664566968403 4.667355840161906 0 0 0
1945 1 18.865253445428742 0.08145648376051184 6.244239201741482 0 0 0
80 1 11.038365661731984 1.646619166626663 4.667302453255672 0 0 0
2053 1 18.865041978845237 9.472013539223234 9.399346054496087 0 0 0
82 1 14.16904870974325 1.6465795523374358 4.66724575486054 0 0 0
85 1 0.08152533366174362 3.2119077507231553 3.0858141190292043 0 0 0
84 1 17.299833500421933 1.6465398929455113 4.667211774843566 0 0 0
422 1 1.646750527623308 17.300024259739704 17.287821403897816 0 0 0
86 1 1.6467502569105936 4.777177647460697 4.667386067875765 0 0 0
87 1 3.211976313330672 3.211907313728979 3.085814957518576 0 0 0
88 1 4.777215905460056 4.777160776838675 4.667361477844578 0 0 0
89 1 6.342457705734543 3.2118584110263138 3.0857655102217953 0 0 0
90 1 7.907704410698077 4.777079507150677 4.667272801712528 0 0 0
91 1 9.47297856738313 3.2117715057194185 3.0856842267764204 0 0 0
92 1 11.038247662426057 4.776949720720734 4.667152163579366 0 0 0
93 1 12.603586647052362 3.2116305246126724 3.085615532086801 0 0 0
94 1 14.16893736276058 4.776797188948755 4.667020697414631 0 0 0
95 1 15.734359327841695 3.211509896129973 3.085548071533937 0 0 0
96 1 17.29976196043802 4.776683056984897 4.666912051193797 0 0 0
73 1 0.08150375055225346 0.08145648495897717 3.0858393622659057 0 0 0
98 1 1.646749490070505 7.9077071854468715 4.667339710615105 0 0 0
99 1 3.2119398884455954 6.342384104215768 3.0857485160186533 0 0 0
100 1 4.77713101218108 7.907661849614213 4.667287364976432 0 0 0
101 1 6.342334146318687 6.342293271095194 3.085658368159442 0 0 0
102 1 7.9075340183658644 7.907532535484462 4.667115562619203 0 0 0
103 1 9.472781411970034 6.342102133639371 3.0855003854905365 0 0 0
104 1 11.038015553682452 7.907311460176557 4.6668541954143095 0 0 0
105 1 12.603337751014612 6.341796310174536 3.085316744236292 0 0 0
106 1 14.16866476063832 7.907011746488171 4.666521724574768 0 0 0
107 1 15.734167670840877 6.34151130777538 3.085111254791592 0 0 0
108 1 17.299567412134945 7.906723252660265 4.666244436470566 0 0 0
420 1 17.300006034000557 14.169417771386852 17.287295170718714 0 0 0
110 1 1.6467488289625252 11.038296378177446 4.667336831784293 0 0 0
111 1 3.211871035855372 9.472916076992544 3.0857050236767005 0 0 0
112 1 4.777006860395753 11.038244826626777 4.667238566868966 0 0 0
113 1 6.342117304604867 9.472780424326954 3.0855453518417293 0 0 0
114 1 7.907273941366645 11.038084571091332 4.666943548671967 0 0 0
115 1 9.472406244544414 9.472496089728857 3.085230131881843 0 0 0
116 1 11.03760299905139 11.037798134201665 4.666405868584249 0 0 0
117 1 12.602819970537757 9.471990024732493 3.084751334421236 0 0 0
118 1 14.168079483049022 11.03724963561097 4.665625173483387 0 0 0
119 1 15.73365224137901 9.471461035942712 3.084119708530904 0 0 0
120 1 17.29887529869203 11.036347178588002 4.664960159508484 0 0 0
419 1 15.734572403171637 12.6039763933483 15.709866018600694 0 0 0
122 1 1.6467480825997265 14.169021219138722 4.6673641544033 0 0 0
123 1 3.211765264814229 12.603551766050707 3.0857232464242377 0 0 0
124 1 4.776860962203627 14.168974415834757 4.667223071925543 0 0 0
125 1 6.34176326563368 12.603405110283964 3.08547213332798 0 0 0
126 1 7.906953040940171 14.168849981043904 4.6667837522903834 0 0 0
127 1 9.471764831579057 12.603060699703867 3.084918818853403 0 0 0
128 1 11.037015103516476 14.168538346094342 4.665851797088089 0 0 0
129 1 12.601841059259426 12.602406038427763 3.0837572497606276 0 0 0
130 1 14.166806728713764 14.1675737929204 4.664254592588301 0 0 0
131 1 15.732284128953658 12.601400352519047 3.0818714947645103 0 0 0
132 1 17.296510334383377 14.164560727957523 4.662878344907616 0 0 0
418 1 14.169375993994477 14.169430096767137 17.28737318854482 0 0 0
134 1 1.6467476758912494 17.29986732017911 4.667405875249633 0 0 0
135 1 3.211645424470497 15.734372363309536 3.0857628385609117 0 0 0
136 1 4.776757222229369 17.299859484789195 4.667229312392313 0 0 0
137 1 6.341397229306353 15.7342738240079 3.0854432470042426 0 0 0
138 1 7.906753481048093 17.299821072636096 4.666660539709906 0 0 0
139 1 9.47107979695802 15.734047306930103 3.0845899782088986 0 0 0
140 1 11.036687961270546 17.299700912937716 4.665383473242757 0 0 0
141 1 12.600547733206241 15.733529969159855 3.0825263657806143 0 0 0
142 1 14.166062576341698 17.29879631340304 4.6633881934026 0 0 0
143 1 15.728649354478145 15.732139229094626 3.0786391649801947 0 0 0
144 1 17.29535254459507 17.290481626751305 4.664625230586997 0 0 0
2113 1 18.865270398767326 6.342413598587405 12.554867942525622 0 0 0
146 1 1.6467507015983167 1.6467312568874204 7.822332449164204 0 0 0
417 1 12.603962498251837 12.604054410357907 15.70989336570159 0 0 0
148 1 4.777297137242034 1.6467150430229403 7.822299553044212 0 0 0
61 1 0.08214484410762699 15.734401041402982 -0.04221933747405184 0 0 0
150 1 7.907861182532203 1.6467026603101935 7.822246684406092 0 0 0
1993 1 18.864002208192165 12.598744295584428 6.24325715272138 0 0 0
152 1 11.038470104160712 1.6466797569886218 7.822170227988591 0 0 0
416 1 11.0387495684343 14.169425432430982 17.28752555627919 0 0 0
154 1 14.169137422262452 1.6466516912143636 7.822102352213572 0 0 0
1969 1 18.865195491147244 6.341810434514911 6.243679498632292 0 0 0
156 1 17.299878701016972 1.6466188960578054 7.822053600011505 0 0 0
415 1 9.473365490125198 12.604075135231152 15.710028938947007 0 0 0
158 1 1.6467504772713077 4.7772672868398915 7.82228326932485 0 0 0
159 1 3.2120016228312873 3.211961499131336 6.24444445323041 0 0 0
160 1 4.777278393124451 4.777251988390891 7.822252900251799 0 0 0
161 1 6.34253222543807 3.2119356619878676 6.244395455455091 0 0 0
162 1 7.907823484036053 4.777208940963206 7.822168215492448 0 0 0
163 1 9.473084132107042 3.2118838444270605 6.244319719994163 0 0 0
164 1 11.038406447510916 4.777137417154452 7.822048742143826 0 0 0
165 1 12.603714007333064 3.2118172376598864 6.244221825126422 0 0 0
166 1 14.169059187679883 4.777017024283539 7.8219286842560125 0 0 0
167 1 15.734431424540265 3.211740481606118 6.244141135101304 0 0 0
168 1 17.299824332205663 4.776898988880324 7.821854304320711 0 0 0
217 1 0.08146430225158928 0.08145648476781986 9.399969673861778 0 0 0
170 1 1.6467499860903931 7.907836890202678 7.8222218162974215 0 0 0
171 1 3.2119865886526946 6.342483854454676 6.244385547167423 0 0 0
172 1 4.777238843502826 7.907815858766667 7.82217661172542 0 0 0
173 1 6.342464581712854 6.342434669142557 6.24431225271699 0 0 0
174 1 7.907736232049007 7.907747441338475 7.822027054796552 0 0 0
175 1 9.472971982958617 6.34233217639583 6.244156618721796 0 0 0
176 1 11.038257424415765 7.907605838535807 7.821810701918672 0 0 0
177 1 12.603569777895771 6.34217569895876 6.243962945590652 0 0 0
178 1 14.16884341514998 7.907324229854246 7.821609063026703 0 0 0
179 1 15.73430291526553 6.341964180092839 6.2437838355465525 0 0 0
180 1 17.299641538506037 7.906921778951224 7.821506707564468 0 0 0
2065 1 18.86450620881684 12.601644187142153 9.399925618431988 0 0 0
182 1 1.6467495419898077 11.038460325159857 7.822175880343693 0 0 0
183 1 3.211948849408775 9.473053700936898 6.244338008841832 0 0 0
184 1 4.777195003466779 11.03844057761085 7.822096511393172 0 0 0
185 1 6.342356390482451 9.472987575766188 6.244195055839357 0 0 0
186 1 7.907620345779736 11.038357081228067 7.8218483213028085 0 0 0
187 1 9.472782162324071 9.47284033588171 6.243913436705594 0 0 0
188 1 11.037996974227081 11.038152121911818 7.821503811563116 0 0 0
189 1 12.603281722163315 9.472558824848292 6.24352595805854 0 0 0
190 1 14.168294444345218 11.037525994688894 7.821274233806817 0 0 0
191 1 15.733917758253574 9.472009631885552 6.2431917276909275 0 0 0
192 1 17.29880133421065 11.036006564693094 7.821624830413764 0 0 0
2041 1 18.865209778880747 6.342068315198069 9.399424782762813 0 0 0
194 1 1.6467489875560168 14.169170945305998 7.822140349343263 0 0 0
195 1 3.2119116349281405 12.603714054277546 6.244314572055401 0 0 0
196 1 4.777161589457047 14.169150054903902 7.822020924114515 0 0 0
197 1 6.342224276345744 12.603646597114532 6.244091016279342 0 0 0
198 1 7.907527334321161 14.169111856407843 7.821666878160945 0 0 0
199 1 9.472521601853199 12.603500019950452 6.243628502069162 0 0 0
200 1 11.037645578196045 14.16890582184982 7.821178441181287 0 0 0
201 1 12.602706405178267 12.603056372676813 6.242948791130272 0 0 0
202 1 14.166766682836856 14.167814138770138 7.8213329960285085 0 0 0
203 1 15.732816717875977 12.601746638734872 6.242507903000277 0 0 0
204 1 17.293426776766083 14.16229658385897 7.826291386738704 0 0 0
2029 1 18.865268918430008 3.2118264741004703 9.3996274100879 0 0 0
206 1 1.646748647401045 17.29992883778423 7.822117732355049 0 0 0
207 1 3.211874429574813 15.734481648958457 6.244306545762835 0 0 0
208 1 4.777165539456026 17.29993688453267 7.821974216530777 0 0 0
209 1 6.342132292276398 15.734457717222432 6.244003513614164 0 0 0
210 1 7.907610756568687 17.299942671361055 7.821505269239408 0 0 0
211 1 9.47231154672483 15.734389352399369 6.243341096214808 0 0 0
212 1 11.038088104098309 17.299987127137516 7.820626394281795 0 0 0
213 1 12.601979801289776 15.73399036832417 6.2423306115483905 0 0 0
214 1 14.168494802089098 17.300174489482092 7.819448723445273 0 0 0
215 1 15.729106771450574 15.731533620531685 6.2428238291610505 0 0 0
216 1 17.298207899370798 17.300273915925303 7.820106047218146 0 0 0
2221 1 18.86532270898645 15.734727064314143 15.709380644112468 0 0 0
218 1 1.646750269634149 1.64675117909358 10.977646250764746 0 0 0
157 1 0.08149968306662458 3.2119621308112314 6.244443850986825 0 0 0
220 1 4.7773361664792215 1.6467477828544437 10.977623588367981 0 0 0
1933 1 18.851226898508312 15.725145494480234 3.067095159755895 0 0 0
222 1 7.907936714631384 1.6467375008964646 10.977566492527183 0 0 0
241 1 0.08147647565193239 6.342597511361254 9.399882704271892 0 0 0
224 1 11.038550544105776 1.6467221344984286 10.977498844500085 0 0 0
1909 1 18.865005627223194 9.471472622775504 3.0839171647150136 0 0 0
226 1 14.16921418901914 1.6467005457566517 10.977427277238457 0 0 0
1897 1 18.8651729686406 6.341462491775184 3.0850060350297954 0 0 0
228 1 17.299919927417832 1.6466861412259604 10.977384592508486 0 0 0
414 1 7.908108650515877 14.169419795527018 17.28769935951125 0 0 0
230 1 1.6467503856839032 4.777349069956908 10.977601935478123 0 0 0
231 1 3.212029835166019 3.2120210965319465 9.399946269120823 0 0 0
232 1 4.777333617005709 4.777336303255979 10.977569221663133 0 0 0
233 1 6.342600638691566 3.212001991642575 9.399894949744242 0 0 0
234 1 7.90791010205813 4.777302385029888 10.97749953339676 0 0 0
235 1 9.473189431686594 3.2119685193245484 9.399819487965091 0 0 0
236 1 11.038511995800013 4.777248504505287 10.97740926789981 0 0 0
237 1 12.6038162845039 3.211923772884059 9.399734709197974 0 0 0
238 1 14.16914858600781 4.777144953911606 10.977339055511075 0 0 0
239 1 15.734508650784742 3.2118545190133303 9.399661260115659 0 0 0
240 1 17.299882521222912 4.777094140719206 10.97726942859206 0 0 0
413 1 6.342742558123077 12.604079512226498 15.710178736132336 0 0 0
242 1 1.6467503630609968 7.907955350745128 10.977523401848496 0 0 0
243 1 3.2120242807175137 6.342596631176086 9.399882882204167 0 0 0
244 1 4.777316166403881 7.907942224815582 10.977484429311025 0 0 0
245 1 6.342570409485655 6.342567500576462 9.39981095758867 0 0 0
246 1 7.907862882570174 7.907899614316113 10.977382292932528 0 0 0
247 1 9.473122465698792 6.342504912976268 9.39968791726143 0 0 0
248 1 11.038383648698145 7.9077691142530275 10.977269399684161 0 0 0
249 1 12.603703333301977 6.342365314347847 9.399555797120636 0 0 0
250 1 14.168934436933656 7.907493544597881 10.977251145052747 0 0 0
251 1 15.734386811552971 6.342148432762426 9.399481241650776 0 0 0
252 1 17.299745861213026 7.907389367644431 10.977143351243583 0 0 0
325 1 0.08145075625598963 9.473324260440483 12.555108492072817 0 0 0
254 1 1.646750205466595 11.038604417794865 10.977433127647117 0 0 0
255 1 3.212007935840207 9.47320601075676 9.399807215891151 0 0 0
256 1 4.777304600461411 11.038600125109864 10.977380832043385 0 0 0
257 1 6.3425197557573245 9.473178970858315 9.399699469922382 0 0 0
258 1 7.907804277168476 11.03854707157821 10.97723107683938 0 0 0
259 1 9.472999016964982 9.473066572771756 9.399506529883464 0 0 0
260 1 11.038174476200963 11.038349495572437 10.977126366603782 0 0 0
261 1 12.603437435926582 9.472784874531786 9.39934904773705 0 0 0
262 1 14.168385890135491 11.037748290873866 10.977381633657847 0 0 0
263 1 15.733914635859247 9.472129055857904 9.39944169648262 0 0 0
264 1 17.29944082700004 11.03760422880277 10.977202956019868 0 0 0
412 1 4.777436753688354 14.169412086284824 17.28783281057249 0 0 0
266 1 1.6467499694712853 14.169292204375454 10.977362847970777 0 0 0
267 1 3.2120035382334056 12.603883332644964 9.399736008287137 0 0 0
268 1 4.777328900083784 14.169291791948353 10.977264074081624 0 0 0
269 1 6.342485589924002 12.603851252581054 9.399556509862949 0 0 0
270 1 7.907884449795434 14.169294693902009 10.97700215846568 0 0 0
271 1 9.472863582625541 12.60374385613423 9.39929236199502 0 0 0
272 1 11.038361335326169 14.16926323655126 10.976668219473455 0 0 0
273 1 12.602865657836652 12.60327267339622 9.399252462538437 0 0 0
274 1 14.16866417861508 14.169014302000804 10.976630062042274 0 0 0
275 1 15.732251133056495 12.60150088122083 9.400518408889099 0 0 0
276 1 17.29892296144814 14.16813367709488 10.97774585727549 0 0 0
411 1 3.212084455549883 12.604072132563504 15.710266230232092 0 0 0
278 1 1.6467498069812447 17.299983729120907 10.977306858039727 0 0 0
279 1 3.2120131996198067 15.734593660423327 9.399673387889363 0 0 0
280 1 4.77734989095566 17.299979998155393 10.97718957199425 0 0 0
281 1 6.342530071683569 15.73459616654976 9.399427476271091 0 0 0
282 1 7.90793708063065 17.29998708604977 10.9768565312129 0 0 0
283 1 9.47302873041204 15.734613776037767 9.398949352799107 0 0 0
284 1 11.038501329077615 17.29999865116829 10.97634401157092 0 0 0
285 1 12.603438242788625 15.734612744351129 9.398347798611917 0 0 0
286 1 14.168998716359832 17.29998234985032 10.975850908138025 0 0 0
287 1 15.733529612897613 15.734226990387311 9.398465015410965 0 0 0
288 1 17.299701253989493 17.300195309099024 10.975597572442783 0 0 0
410 1 1.6467503485583326 14.169412107808773 17.28787434764353 0 0 0
290 1 1.6467494531012739 1.6467732966011006 14.132942454771419 0 0 0
491 1 15.734702173004239 12.604111944692228 18.865148898603604 0 0 0
292 1 4.7773711647064445 1.6467700846211621 14.132925205891306 0 0 0
408 1 17.29997829155021 11.038708857608276 17.287572636369863 0 0 0
294 1 7.90799373382186 1.6467629967058361 14.132880246185723 0 0 0
193 1 0.08158574037550542 12.60371452263489 6.244316053062997 0 0 0
296 1 11.038629930845657 1.6467490913347533 14.132816656334876 0 0 0
121 1 0.08173086409348072 12.603552156701463 3.085725216173482 0 0 0
298 1 14.169288734279048 1.6467415173725606 14.132750824280158 0 0 0
407 1 15.73458012158485 9.473272468343477 15.71008944964169 0 0 0
300 1 17.299966521299428 1.646736598350864 14.132700059111928 0 0 0
301 1 0.0814485829316939 3.2120710755192947 12.5552738083268 0 0 0
302 1 1.6467499173808793 4.777411807105606 14.132898523371253 0 0 0
303 1 3.212051573776042 3.2120705074838574 12.555274634415742 0 0 0
304 1 4.777365966772457 4.777401509540875 14.132874716520835 0 0 0
305 1 6.342654954663021 3.2120557104830585 12.555232931780418 0 0 0
306 1 7.907978611493754 4.777378578154142 14.132821682327068 0 0 0
307 1 9.473264391543768 3.212034136403473 12.55516858099871 0 0 0
308 1 11.038593388000816 4.777336170135602 14.13275763727702 0 0 0
309 1 12.603896775295922 3.211996098628544 12.555099682506246 0 0 0
310 1 14.169255602691583 4.777307416444 14.132680062264798 0 0 0
311 1 15.734580137994099 3.2119708013503 12.555033828105925 0 0 0
312 1 17.299950882267474 4.777287776651313 14.132622029946418 0 0 0
406 1 14.169316002891128 11.038725477705945 17.287662092766215 0 0 0
314 1 1.6467501953384902 7.908055481696001 14.13280964148113 0 0 0
315 1 3.212049993781077 6.342689065965937 12.555208941392607 0 0 0
316 1 4.777367781456565 7.908043519060662 14.132780998758346 0 0 0
317 1 6.3426405819047265 6.342662584488167 12.55515261125456 0 0 0
318 1 7.907963365508651 7.90800985600567 14.132718973121394 0 0 0
319 1 9.473219231826215 6.342614689506317 12.55507456026582 0 0 0
320 1 11.03852890788907 7.907931796273714 14.13265900866583 0 0 0
321 1 12.603807732663654 6.342499162556808 12.555014691822066 0 0 0
322 1 14.16917654760121 7.90785382631833 14.132578329551142 0 0 0
323 1 15.73451285427041 6.342438285060162 12.554930190316043 0 0 0
324 1 17.299898950271384 7.907816696842473 14.13249644681404 0 0 0
2005 1 18.84641856596374 15.714207589522339 6.262025888327739 0 0 0
326 1 1.6467503598025044 11.038705322797632 14.13269538327443 0 0 0
327 1 3.2120499082935807 9.473323630562735 12.555108336955637 0 0 0
328 1 4.77738422281854 11.038706516020188 14.132657486079474 0 0 0
329 1 6.342627106802869 9.473312454519673 12.555036387186576 0 0 0
330 1 7.907981521883335 11.038698823028785 14.132545922723038 0 0 0
331 1 9.47314255592698 9.473232065910137 12.554943702763984 0 0 0
332 1 11.03853376573441 11.038641148023778 14.132438665971227 0 0 0
333 1 12.603623014243333 9.47301546196379 12.554940530613193 0 0 0
334 1 14.169058639060983 11.038462590087551 14.132464709966692 0 0 0
335 1 15.734342117044099 9.472877124017641 12.554842792455089 0 0 0
336 1 17.29982584866031 11.038398349006245 14.132357713423083 0 0 0
501 1 12.60411102744746 15.734747278978784 18.865066197161457 0 0 0
338 1 1.6467504558941661 14.169366876338236 14.132599310552738 0 0 0
339 1 3.212057043575093 12.603997119114965 12.555004222608162 0 0 0
340 1 4.777400361563383 14.169373046741645 14.13253803929869 0 0 0
341 1 6.3426548591052265 12.604000295252959 12.554879764887238 0 0 0
342 1 7.908035820072318 14.169382996911446 14.132354383836057 0 0 0
343 1 9.473201174673104 12.603981770084484 12.554681150472225 0 0 0
344 1 11.038626564027398 14.169377388764106 14.132129662427298 0 0 0
345 1 12.603658556107387 12.603849275888857 12.554581887320143 0 0 0
346 1 14.16920080787218 14.169342027175391 14.131969634866309 0 0 0
347 1 15.734075021299137 12.603440793226827 12.554882890041025 0 0 0
348 1 17.29982568332949 14.169199273149884 14.132076892176588 0 0 0
349 1 0.08142919096324137 15.734672985401591 12.55492440530431 0 0 0
350 1 1.6467503557377299 17.300017029146463 14.132546439814517 0 0 0
351 1 3.2120711406769087 15.734672933080727 12.55492384440872 0 0 0
352 1 4.777426929227468 17.30001085969328 14.132465950493058 0 0 0
353 1 6.342701941108242 15.734678953775152 12.55473917065754 0 0 0
354 1 7.908074154745643 17.3000198270326 14.132240509855139 0 0 0
355 1 9.473292238099512 15.734689227930366 12.554427414202562 0 0 0
356 1 11.03869643362971 17.30003338489878 14.131917616326723 0 0 0
357 1 12.60385411714252 15.734683204123597 12.554085571628027 0 0 0
358 1 14.169276811026545 17.30002079373932 14.13161228748097 0 0 0
359 1 15.7344364986005 15.734669278236641 12.553923069987386 0 0 0
360 1 17.29994782193195 17.300066130823243 14.131360636405402 0 0 0
432 1 17.300033186200846 17.300051621327608 17.28700515158984 0 0 0
362 1 1.6467485899781311 1.6467869961993438 17.288203762843427 0 0 0
431 1 15.734662705194483 15.73473777103395 15.709430653945198 0 0 0
364 1 4.777400619506073 1.6467883483200372 17.288190791133573 0 0 0
430 1 14.169411869797083 17.300038510777455 17.28717636311077 0 0 0
366 1 7.908049941650656 1.6467825994731318 17.288151274557073 0 0 0
429 1 12.604033353147313 15.734726919827729 15.709615189429412 0 0 0
368 1 11.038701258958646 1.646778303932259 17.288098647133754 0 0 0
428 1 11.038779409041373 17.300035750228204 17.287392168813124 0 0 0
370 1 14.169356666681765 1.6467755229560188 17.288043541178315 0 0 0
427 1 9.473416917164027 15.734723136014606 15.709852980465048 0 0 0
372 1 17.3000064555102 1.6467768627346837 17.28799663904346 0 0 0
405 1 12.60390364567269 9.473313349631301 15.710185448090137 0 0 0
374 1 1.6467489874689927 4.777455375479235 17.2881567985471 0 0 0
375 1 3.21206636567313 3.2121067598151236 15.710554705755644 0 0 0
376 1 4.777395261679698 4.777452954568911 17.288141254010903 0 0 0
377 1 6.342699912108622 3.212099031755473 15.710523773972973 0 0 0
378 1 7.908039639734991 4.777439229167327 17.288101779253488 0 0 0
379 1 9.473336024254477 3.2120806968007405 15.710471829299289 0 0 0
380 1 11.038685688302039 4.777421216933699 17.28804246089812 0 0 0
381 1 12.603985923137353 3.2120685456619578 15.710406988124229 0 0 0
382 1 14.169338487114816 4.777409537023954 17.28797427940841 0 0 0
383 1 15.734648425977026 3.2120588064103384 15.710346454970857 0 0 0
384 1 17.300000081656876 4.777405659429434 17.28791989363942 0 0 0
404 1 11.038699528068118 11.038759397634438 17.287738418886306 0 0 0
386 1 1.6467496472969705 7.908126896158315 17.288073868924016 0 0 0
387 1 3.212066099490035 6.342764236229964 15.71048654916323 0 0 0
388 1 4.7773988161736 7.90812114003794 17.28804936013351 0 0 0
389 1 6.342693620853036 6.342746255431063 15.710448664909881 0 0 0
390 1 7.908040814143784 7.908105753132551 17.287995654795836 0 0 0
391 1 9.473313152807496 6.342714932884461 15.710391772166988 0 0 0
392 1 11.038670673071705 7.908075842038236 17.28792969053927 0 0 0
393 1 12.603947310583719 6.342678552134604 15.71031727499597 0 0 0
394 1 14.169316625096101 7.908053621268636 17.28784291317024 0 0 0
395 1 15.734620517944737 6.342658454519485 15.71023953177512 0 0 0
396 1 17.29998184824328 7.908044576726639 17.287771050248217 0 0 0
397 1 0.0814264767747933 9.473424621367444 15.710380407976949 0 0 0
398 1 1.6467500770733325 11.038785713574853 17.287971171717352 0 0 0
399 1 3.212073760120667 9.473424159143617 15.710380733860035 0 0 0
400 1 4.777419574269852 11.038782137339954 17.287934160866236 0 0 0
401 1 6.342708590263808 9.473410149107732 15.710326307344825 0 0 0
402 1 7.908068396383998 11.038773698155286 17.287848370034826 0 0 0
403 1 9.473318765098071 9.473382507713033 15.710240668613794 0 0 0
371 1 15.734658443299631 0.08145648434849063 15.710375491543887 0 0 0
1981 1 18.865051050287814 9.471457345269414 6.243030128413986 0 0 0
229 1 0.08147119926943873 3.2120216806176787 9.399945696451857 0 0 0
253 1 0.08149224389934079 9.473206408526739 9.399807628978404 0 0 0
363 1 3.2120681581189996 0.08145648431937798 15.710580327500335 0 0 0
205 1 0.0816221491689733 15.734481763639357 6.244308285052802 0 0 0
2125 1 18.865207321225537 9.472828183770153 12.554757538499645 0 0 0
1957 1 18.86524825285608 3.211687788266022 6.24409542456203 0 0 0
295 1 9.47327761507376 0.08145648452764336 12.555205651963965 0 0 0
277 1 0.08148533706577887 15.734593695958203 9.399674372300895 0 0 0
133 1 0.08184948992756412 15.734372332173061 3.0857653999364727 0 0 0
291 1 3.2120507800099563 0.08145648456941113 12.555299859882119 0 0 0
289 1 0.08144924387012711 0.08145648456742027 12.555298868407245 0 0 0
227 1 15.73454192828157 0.08145648418903673 9.399732293766773 0 0 0
1885 1 18.865229475293052 3.211468266256467 3.0855051271142737 0 0 0
223 1 9.473211198928029 0.08145648453990106 9.399859003787418 0 0 0
1861 1 18.864168395316646 15.730309076588233 -0.05193550105494429 0 0 0
337 1 0.08144357967929494 12.60399742541567 12.555004569605401 0 0 0
1921 1 18.864162961502522 12.601004696413211 3.081491803853651 0 0 0
9 1 12.60366867119065 0.08145648417485549 -0.042091042013333836 0 0 0
2137 1 18.865097311775408 12.603341328628286 12.554749276502093 0 0 0
2017 1 18.865278255218087 0.08145648413562437 9.399712508473876 0 0 0
149 1 6.342543148635061 0.08145648471338339 6.244416908857692 0 0 0
11 1 15.734421289042555 0.08145648383682111 -0.04213416108230976 0 0 0
77 1 6.342490089475317 0.0814564847147074 3.0858046883909434 0 0 0
2089 1 18.865300683319433 0.08145648439295172 12.555049555466631 0 0 0
1849 1 18.864602469393734 12.599372020078379 -0.04610553009800237 0 0 0
2173 1 18.86531898368498 3.212055156171747 15.710307743768428 0 0 0
1813 1 18.865211200267563 3.2111118379664068 -0.04234481494010883 0 0 0
1825 1 18.865124610026534 6.340681739082168 -0.042837670923329914 0 0 0
313 1 0.08145056905085113 6.342689812537621 12.555208753100041 0 0 0
373 1 0.08143221442308146 3.2121070214126455 15.710553977537732 0 0 0
265 1 0.0814955525490479 12.603883650850479 9.399736637623542 0 0 0
109 1 0.08162641253850016 9.472916649787383 3.085706005220739 0 0 0
2197 1 18.86528807683152 9.473256571821732 15.71002369497176 0 0 0
2101 1 18.865292641741057 3.211957767014193 12.554992476315892 0 0 0