LAMMPS data file via write_data, version 2 Aug 2023, timestep = 782, units = metal

3457 atoms
3 atom types

-0.0005254560127195482 37.73117745601279 xlo xhi
-0.0005254560070721235 37.73117745600699 ylo yhi
-0.0010110969498107944 37.73166309694977 zlo zhi

Masses

1 183.84
2 1.008
3 4.0026

Atoms # atomic

1883 1 15.720479483485384 18.86514115555887 3.142508121993081 0 0 0
2 1 1.5716040577647508 1.5716040577688173 1.5712232209185573 0 0 0
1889 1 25.154366411288454 18.8651514568724 3.1426967176122957 0 0 0
4 1 4.7157713149071565 1.5715983171422925 1.5712098028342683 0 0 0
2023 1 9.431535738967714 18.865194105490495 6.287028220022949 0 0 0
6 1 7.859986004092979 1.571586882429325 1.5711914895900398 0 0 0
2027 1 15.720065660330755 18.864945314506844 6.285909512864471 0 0 0
8 1 11.004271966060985 1.571573285397914 1.5711640788552579 0 0 0
2033 1 25.154388321008028 18.864971274457446 6.286341373964209 0 0 0
10 1 14.148627290706253 1.5715620285417669 1.571148926380132 0 0 0
2037 1 31.443064919246353 18.86516892386827 6.287242892673065 0 0 0
12 1 17.2930518677158 1.5715556815050515 1.5711225960137454 0 0 0
2171 1 15.719160779807469 18.86449052253089 9.428978347146876 0 0 0
14 1 20.437505295061225 1.571555142309651 1.571119874243871 0 0 0
2177 1 25.154625946194532 18.864671207723422 9.429775401842122 0 0 0
16 1 23.581950581789698 1.5715601784790245 1.5711274976804042 0 0 0
665 1 25.15419566908041 9.431451392926318 12.576029765420014 0 0 0
18 1 26.726352724942036 1.5715692781249668 1.5711580200955526 0 0 0
659 1 15.720399997891809 9.431064145507133 12.575835278192786 0 0 0
20 1 29.870680159194755 1.5715812037698398 1.5711741623366644 0 0 0
657 1 12.576061995637126 9.431509090936784 12.576118708091704 0 0 0
22 1 33.01494333002254 1.5715939691437064 1.5711992953918423 0 0 0
655 1 9.431859736603444 9.431859736611948 12.576338361652372 0 0 0
24 1 36.159144171928624 1.5716025274992156 1.5712141323927966 0 0 0
653 1 6.287723479452473 9.432095002525077 12.57650777518681 0 0 0
26 1 1.5715983171384418 4.715771314910385 1.5712098028340515 0 0 0
2305 1 37.731141711209986 18.865251052134678 12.576416407901696 -1 0 0
28 1 4.715750090240552 4.715750090244007 1.5711995017977627 0 0 0
2307 1 3.143439812731546 18.865290336728524 12.576406800165957 0 0 0
30 1 7.859946956551466 4.715707570757509 1.571179055224192 0 0 0
701 1 6.287388741691688 15.720768938411355 12.576267488402117 0 0 0
32 1 11.0042283415408 4.715661513314239 1.5711502270273392 0 0 0
2317 1 18.86232856965053 18.862328568906296 12.56735977795346 0 0 0
34 1 14.148591334836798 4.715624235612551 1.5711311363811353 0 0 0
2319 1 22.01016822004917 18.86318348521501 12.569370306917746 0 0 0
36 1 17.29303438215264 4.7156081659774856 1.5711145858663789 0 0 0
703 1 9.431064145575519 15.720399997954145 12.575835278243398 0 0 0
38 1 20.4375122835184 4.715610377320152 1.5711112019484774 0 0 0
643 1 28.298445164596245 6.287772264439813 12.57646934822275 0 0 0
40 1 23.581978052817355 4.715630428596184 1.5711249890703292 0 0 0
641 1 25.15410713574836 6.287596005752556 12.576343907748376 0 0 0
42 1 26.72639039660956 4.715662464320314 1.5711483771406372 0 0 0
689 1 25.15460856637951 12.57492415554037 12.575200739338726 0 0 0
44 1 29.870718140431336 4.7157036134713675 1.5711686301534435 0 0 0
691 1 28.298719126274257 12.575886516630058 12.57595243272289 0 0 0
46 1 33.01497157372133 4.715742363356758 1.5711936259337311 0 0 0
635 1 15.720768938385744 6.287388741655765 12.576267488382836 0 0 0
48 1 36.15915376910072 4.7157692024377935 1.5712069519855785 0 0 0
633 1 12.57639381374521 6.287549943402736 12.576386662653045 0 0 0
50 1 1.5715868824260357 7.859986004095478 1.5711914895896724 0 0 0
631 1 9.432095002517121 6.287723479452887 12.576507775185211 0 0 0
52 1 4.715707570754255 7.859946956554678 1.5711790552242035 0 0 0
617 1 25.15405807306725 3.1435670247409506 12.57646940946588 0 0 0
54 1 7.85987467243576 7.859874672439169 1.571140467075011 0 0 0
615 1 22.009679980767736 3.1434872810290995 12.576415180722698 0 0 0
56 1 11.004138180835445 7.859794125366237 1.571099071384773 0 0 0
613 1 18.865290336720417 3.1434398126977023 12.5764068001592 0 0 0
58 1 14.148520115487727 7.859735969500987 1.5710541364864856 0 0 0
611 1 15.720898773927056 3.1434415238400826 12.57645010804625 0 0 0
60 1 17.29299704114801 7.859707292550297 1.5710369464936629 0 0 0
609 1 12.576545643681575 3.143502111520924 12.576529132519273 0 0 0
62 1 20.437523601144317 7.859713531866004 1.5710290687935593 0 0 0
595 1 28.298381535355038 -0.00041912598283108367 12.576513508558476 0 0 0
64 1 23.58203026996632 7.859749783047295 1.5710566874412573 0 0 0
593 1 25.15401194765227 -0.00044302304178025495 12.576442249644094 0 0 0
66 1 26.726460033210376 7.859806541551602 1.5710857527735225 0 0 0
591 1 22.0096193140451 -0.0005082438057444755 12.57640780624963 0 0 0
68 1 29.870790810934015 7.859871330992886 1.5711322633431586 0 0 0
667 1 28.29853211332404 9.431855902636636 12.576298938744403 0 0 0
70 1 33.0150196834961 7.859935914897202 1.5711652365332218 0 0 0
669 1 31.442776633718953 9.432111707115046 12.576475165459588 0 0 0
72 1 36.15917211127109 7.8599792115573 1.57119171677381 0 0 0
675 1 3.143502111532777 12.576545643687224 12.576529132520287 0 0 0
74 1 1.5715732853953461 11.004271966063163 1.5711640788548764 0 0 0
677 1 6.287549943414653 12.576393813762445 12.576386662661298 0 0 0
76 1 4.715661513311633 11.004228341543918 1.5711502270275508 0 0 0
2183 1 34.587157868355284 18.865178935156536 9.43183724351856 0 0 0
78 1 7.859794125363431 11.004138180839437 1.5710990713852968 0 0 0
2181 1 31.443071313796317 18.865028709438107 9.431463675702375 0 0 0
80 1 11.004029864787977 11.004029864791995 1.5710389171143104 0 0 0
2179 1 28.29892673779564 18.864870953307236 9.430868095361685 0 0 0
82 1 14.148423245212355 11.003949913969787 1.5709729154544387 0 0 0
705 1 12.574173249563767 15.719386261858403 12.574697001093215 0 0 0
84 1 17.292946621322407 11.003914407095346 1.570945611949802 0 0 0
85 1 18.86525553707193 9.431795210688572 -0.0010110834062078485 0 0 0
86 1 20.43753139495769 11.003921472265759 1.5709441792061118 0 0 0
87 1 22.0097974626897 9.431819484562467 -0.001011082269394571 0 0 0
88 1 23.582088001541365 11.003972263902725 1.5709805663833 0 0 0
2175 1 22.009521294773325 18.8645328558741 9.428777558595497 0 0 0
90 1 26.72654381919302 11.004044358705327 1.5710276131936243 0 0 0
2173 1 18.864424440605884 18.86442444057025 9.428169553074033 0 0 0
92 1 29.870869527793538 11.0041287104704 1.5710935610011325 0 0 0
707 1 15.716278003567101 15.716278003564058 12.571387674476204 0 0 0
94 1 33.01506756956323 11.004211981041186 1.571137427426327 0 0 0
2169 1 12.575097989612582 18.864861026034777 9.43038960616457 0 0 0
96 1 36.159188801569655 11.004265263742482 1.5711684175490026 0 0 0
2167 1 9.431268376011818 18.865108272577476 9.431229613935326 0 0 0
98 1 1.5715620285399063 14.148627290708124 1.5711489263797969 0 0 0
2165 1 6.287394267047803 18.865238577900957 9.431736395241279 0 0 0
100 1 4.715624235610933 14.1485913348397 1.5711311363817948 0 0 0
2163 1 3.1434689355419088 18.865285261090673 9.431954683062513 0 0 0
102 1 7.859735969499686 14.148520115492223 1.5710541364881982 0 0 0
2161 1 37.73116836349462 18.865268898761272 9.43198171679371 -1 0 0
104 1 11.003949913967276 14.148423245218268 1.570972915456378 0 0 0
2039 1 34.58716950402387 18.865244203228848 6.2875033998556065 0 0 0
106 1 14.148333401572778 14.148333401578432 1.570862106628894 0 0 0
107 1 15.720644980160975 12.576117665400696 -0.0010109144342806229 0 0 0
108 1 17.29289575036855 14.148283847501174 1.5708100386708157 0 0 0
109 1 18.865232225325272 12.576101119025703 -0.0010109139068961049 0 0 0
110 1 20.43752813042948 14.148283425078375 1.5708067178170557 0 0 0
111 1 22.009830926184314 12.576130425163667 -0.0010109519947254075 0 0 0
112 1 23.582124624404752 14.148341330728874 1.5708644278471784 0 0 0
113 1 25.154360696486144 12.576193111156758 -0.0010109400383330005 0 0 0
114 1 26.72660452382221 14.148425343885114 1.5709452332108662 0 0 0
115 1 28.298743057531066 12.576276081054015 -0.0010110756808310445 0 0 0
116 1 29.87091667243401 14.148511245383675 1.5710465657082142 0 0 0
693 1 31.442845639571605 12.5763280844923 12.576329562937524 0 0 0
118 1 33.015097220759365 14.14858114953414 1.5711015435026836 0 0 0
2035 1 28.29881798378631 18.86507376544744 6.286851998565544 0 0 0
120 1 36.15920122597235 14.148620752356733 1.5711537201549075 0 0 0
695 1 34.58698960001018 12.576522872195381 12.576488012873524 0 0 0
122 1 1.5715556815037235 17.293051867717192 1.5711225960136153 0 0 0
2031 1 22.009662580041542 18.86488921426858 6.285880497897478 0 0 0
124 1 4.715608165976928 17.293034382154925 1.5711145858675162 0 0 0
2029 1 18.864879962489358 18.864879962509985 6.285657293517684 0 0 0
126 1 7.85970729255089 17.292997041151935 1.571036946496691 0 0 0
713 1 25.156565035058197 15.717678516142987 12.572722126339837 0 0 0
128 1 11.003914407095847 17.292946621329033 1.5709456119547114 0 0 0
129 1 12.576117665398074 15.720644980167522 -0.0010109144342958238 0 0 0
130 1 14.148283847498394 17.29289575037713 1.5708100386760193 0 0 0
131 1 15.720585915656823 15.720585915663118 -0.001010988988740058 0 0 0
132 1 17.292860223640275 17.292860223648475 1.57073803285573 0 0 0
133 1 18.865205103702262 15.72056239667125 -0.001010953401014404 0 0 0
134 1 20.43751395554375 17.29285481700777 1.5707302470657345 0 0 0
135 1 22.009847537354883 15.720584382588768 -0.0010109707711881354 0 0 0
136 1 23.582127066625347 17.292889271989978 1.5708091663495949 0 0 0
137 1 25.154398777132158 15.720644123498142 -0.0010110357122232875 0 0 0
138 1 26.726623433454968 17.292939851085254 1.570906979847966 0 0 0
139 1 28.29878324601075 15.720711740105404 -0.0010109395169790316 0 0 0
140 1 29.87093101816087 17.292986530514263 1.5710265946678617 0 0 0
2025 1 12.575677558747405 18.86508043602171 6.286500679129119 0 0 0
142 1 33.0151104780543 17.29302348925187 1.5710872553557922 0 0 0
715 1 28.299332031899354 15.719931808629482 12.575320638009995 0 0 0
144 1 36.15920424078661 17.2930463178526 1.5711379312941873 0 0 0
145 1 -0.0004776933926712547 -0.0004776933881233933 3.143446870289958 0 0 0
146 1 1.5716014873442499 1.5716014873480215 4.71567405856594 0 0 0
147 1 3.1436865726806893 -0.0004773275001197701 3.1434442894025727 0 0 0
148 1 4.715780856152576 1.5715928102672283 4.715657607638475 0 0 0
149 1 6.28787949322898 -0.00047446655127041695 3.1434201912481705 0 0 0
150 1 7.8599986582996735 1.571576544939408 4.715607852656971 0 0 0
151 1 9.432125308033411 -0.00047333912217924196 3.1433828101460364 0 0 0
152 1 11.00427693544472 1.5715572356008125 4.715555141861936 0 0 0
153 1 12.576449717083353 -0.00047593725725316756 3.143338234733438 0 0 0
154 1 14.148640978965819 1.5715407512731911 4.715498693885458 0 0 0
155 1 15.720835846500634 -0.00047710851757530094 3.143303180373606 0 0 0
156 1 17.2930593348105 1.5715316487717428 4.715461234014378 0 0 0
157 1 18.86527988514138 -0.0004811562740700018 3.143280419097522 0 0 0
158 1 20.437507077081776 1.5715320674811597 4.715446069776187 0 0 0
159 1 22.00972633900745 -0.00048322384754311194 3.143285243683574 0 0 0
160 1 23.581942513806528 1.5715404110799307 4.71547594059987 0 0 0
161 1 25.15415165626685 -0.0004826089123785719 3.1433159886542157 0 0 0
162 1 26.726333181039216 1.5715561919378864 4.7155227098066455 0 0 0
163 1 28.298511971987477 -0.0004815273711843104 3.143353127019315 0 0 0
164 1 29.870669290868506 1.5715767796623077 4.7155791055735605 0 0 0
165 1 31.442813303795543 -0.0004767448018583438 3.1433947420075428 0 0 0
166 1 33.01492599436715 1.5715939713016158 4.715626013358552 0 0 0
167 1 34.58704183887599 -0.0004757651720009497 3.1434278053996447 0 0 0
168 1 36.159130417619636 1.5716025666336046 4.715666964986286 0 0 0
169 1 -0.00047732750433806544 3.143686572683928 3.1434442894021304 0 0 0
170 1 1.5715928102638557 4.715780856155496 4.715657607637847 0 0 0
171 1 3.143679432015984 3.14367943201954 3.1434389586712475 0 0 0
172 1 4.715748227289388 4.715748227292618 4.715628846068141 0 0 0
173 1 6.287864387666864 3.143655365868974 3.1434108766446656 0 0 0
174 1 7.859946972528405 4.715687449065102 4.715563609076801 0 0 0
175 1 9.43210468046872 3.1436230510400067 3.1433681745142805 0 0 0
176 1 11.004220397289435 4.715621514849723 4.71548509888902 0 0 0
177 1 12.576430084851195 3.1435945607305356 3.1433186725347038 0 0 0
178 1 14.148591050607024 4.7155739430011065 4.715411512723833 0 0 0
179 1 15.7208237085674 3.1435739336155017 3.143281359670623 0 0 0
180 1 17.293035090529255 4.7155550404699875 4.715363482670509 0 0 0
181 1 18.86527920496729 3.143570869443418 3.143259341980391 0 0 0
182 1 20.437514625242304 4.715562081316892 4.715357884453484 0 0 0
183 1 22.009736977333702 3.1435798284198597 3.143266369361859 0 0 0
184 1 23.58197850667409 4.715592148856732 4.715391761968465 0 0 0
185 1 25.154171152273978 3.14359753244469 3.143300691299229 0 0 0
186 1 26.72638460725988 4.715633420608984 4.715457024442923 0 0 0
187 1 28.298532860607313 3.1436246188646306 3.1433441306984236 0 0 0
188 1 29.870713358341423 4.7156858357437805 4.7155337068008665 0 0 0
189 1 31.442828597391337 3.143652024401352 3.143391684104257 0 0 0
190 1 33.014958894445414 4.715737793866629 4.7156008500772915 0 0 0
191 1 34.587049464698296 3.1436754616800413 3.14342642565376 0 0 0
192 1 36.15914382992046 4.7157748234474175 4.715648170379086 0 0 0
193 1 -0.00047446655452815754 6.287879493231119 3.143420191247092 0 0 0
194 1 1.5715765449371588 7.859998658301878 4.715607852655839 0 0 0
195 1 3.143655365865622 6.28786438766993 3.1434108766443862 0 0 0
196 1 4.715687449062303 7.8599469725317785 4.715563609076757 0 0 0
197 1 6.287808812361811 6.28780881236515 3.1433659578214104 0 0 0
198 1 7.859843549959451 7.859843549963021 4.715477533876986 0 0 0
199 1 9.432029321486759 6.287730908962995 3.143307062695771 0 0 0
200 1 11.004095200860409 7.859721196364354 4.715349833776751 0 0 0
201 1 12.576352236002899 6.287658757981263 3.1432415183538414 0 0 0
202 1 14.14848033536885 7.859632929040538 4.715238330984278 0 0 0
203 1 15.720777889710805 6.287618810956229 3.143192274780073 0 0 0
204 1 17.292976617184888 7.859598198883507 4.715167229986367 0 0 0
205 1 18.865264758955252 6.287612002561906 3.1431706979857594 0 0 0
206 1 20.4375174427975 7.859613044103496 4.715166161696445 0 0 0
207 1 22.009767566592128 6.287633618041211 3.143185903497858 0 0 0
208 1 23.582037316138454 7.859665668438451 4.715223669971896 0 0 0
209 1 25.15422266495724 6.287674529895358 3.1432309470360504 0 0 0
210 1 26.726477831611707 7.8597437595168556 4.715329781489379 0 0 0
211 1 28.298602008252374 6.287730068109299 3.1432900475980134 0 0 0
212 1 29.870805367659308 7.8598358689788395 4.7154425723387146 0 0 0
213 1 31.442884278637784 6.2877970889086 3.1433509599212393 0 0 0
214 1 33.015023473088185 7.859929804482277 4.715545555931873 0 0 0
215 1 34.58708287605034 6.287852919848338 3.1433938041104112 0 0 0
216 1 36.15916974930471 7.859990564398687 4.7155971103380105 0 0 0
217 1 -0.00047333912423975333 9.43212530803486 3.143382810144387 0 0 0
218 1 1.571557235600019 11.004276935446729 4.715555141860657 0 0 0
219 1 3.1436230510374084 9.432104680471513 3.143368174514042 0 0 0
220 1 4.7156215148482294 11.004220397293244 4.715485098889824 0 0 0
221 1 6.2877309089601585 9.432029321490395 3.1433070626962154 0 0 0
222 1 7.859721196362089 11.004095200865743 4.71534983377851 0 0 0
223 1 9.431918398479153 9.431918398482985 3.143204732952388 0 0 0
224 1 11.003924605646084 11.003924605651267 4.7151247329386585 0 0 0
225 1 12.576232471181637 9.431815662735811 3.143099609629076 0 0 0
226 1 14.148322565529307 11.00379314351915 4.71493622135122 0 0 0
227 1 15.720692260187255 9.431754535625027 3.1430193858374103 0 0 0
228 1 17.29287553034773 11.003735406165974 4.714823881903375 0 0 0
229 1 18.865236029230914 9.43174503027953 3.142992227872755 0 0 0
230 1 20.437503866087695 11.00375137948698 4.714831375534655 0 0 0
231 1 22.009805259258496 9.431778867239075 3.1430199268870975 0 0 0
232 1 23.58210127220595 11.003829822858084 4.7149280025000575 0 0 0
233 1 25.154303368215107 9.431842854200855 3.1430914806929753 0 0 0
234 1 26.72658113670279 11.003947819373396 4.715100362117447 0 0 0
235 1 28.29869621595488 9.431927309226415 3.143187739663519 0 0 0
236 1 29.870911537207093 11.004078812350002 4.71528347002725 0 0 0
237 1 31.442959453809053 9.432016678291768 3.143279620538136 0 0 0
238 1 33.01509151384762 11.00420172814888 4.715456285263996 0 0 0
239 1 34.58712558481499 9.4320916848017 3.1433527526699243 0 0 0
240 1 36.15919225211391 11.004271600003753 4.715534823477709 0 0 0
241 1 -0.00047593725827025594 12.576449717084612 3.1433382347314964 0 0 0
242 1 1.5715407512737607 14.14864097896786 4.715498693884411 0 0 0
243 1 3.143594560728946 12.576430084853953 3.1433186725348765 0 0 0
244 1 4.715573943001739 14.148591050611321 4.715411512726257 0 0 0
245 1 6.287658757979767 12.576352236007098 3.143241518355488 0 0 0
246 1 7.859632929041742 14.14848033537631 4.715238330989972 0 0 0
247 1 9.431815662733502 12.576232471187323 3.1430996096313333 0 0 0
248 1 11.003793143518392 14.14832256554002 4.714936221358515 0 0 0
249 1 12.576098643285524 12.576098643290974 3.1429150283847345 0 0 0
250 1 14.148153353460263 14.148153353469425 4.714594252354205 0 0 0
251 1 15.720590190341168 12.576018175086586 3.142783321651274 0 0 0
252 1 17.292750058900843 14.148072156172455 4.714419309369965 0 0 0
253 1 18.865192999419158 12.575996513206709 3.142734099621443 0 0 0
254 1 20.43746452595272 14.148084499240579 4.71445705067334 0 0 0
255 1 22.00983098619577 12.576036103844894 3.142781314600998 0 0 0
256 1 23.582135150479434 14.148169494865309 4.7145931134384345 0 0 0
257 1 25.15437217867972 12.576124315253548 3.1429048280381364 0 0 0
258 1 26.72664436494436 14.148308079919028 4.714855753627893 0 0 0
259 1 28.29878182399812 12.576228040152953 3.1430579423537224 0 0 0
260 1 29.870962753114778 14.14846132549315 4.715155956487088 0 0 0
261 1 31.443016314565938 12.576337310298614 3.1432090739624896 0 0 0
262 1 33.01512770032666 14.14856980693856 4.715372850522852 0 0 0
263 1 34.58716121389872 12.576413652717342 3.1433030114924936 0 0 0
264 1 36.15920296278718 14.148632003114413 4.71547193903067 0 0 0
265 1 -0.0004771085179424565 15.72083584650199 3.1433031803716887 0 0 0
266 1 1.5715316487732143 17.293059334812412 4.715461234013876 0 0 0
267 1 3.143573933614972 15.720823708569787 3.143281359671325 0 0 0
268 1 4.715555040472749 17.293035090532907 4.71536348267471 0 0 0
269 1 6.2876188109567535 15.720777889714979 3.143192274783485 0 0 0
270 1 7.859598198889436 17.29297661719238 4.715167229996991 0 0 0
271 1 9.431754535626068 15.72069226019448 3.1430193858438646 0 0 0
272 1 11.003735406173291 17.292875530361307 4.714823881921932 0 0 0
273 1 12.576018175085084 15.72059019035105 3.1427833216586656 0 0 0
274 1 14.148072156174225 17.292750058920053 4.714419309392938 0 0 0
275 1 15.720509064574948 15.720509064583638 3.1425820764197048 0 0 0
276 1 17.29267189756146 17.292671897575957 4.714122638493606 0 0 0
277 1 18.865141155545547 15.720479483488443 3.142508121975383 0 0 0
278 1 20.437407930542868 17.29264835252554 4.714154188144114 0 0 0
279 1 22.009830092248986 15.720511612702795 3.142580567962353 0 0 0
280 1 23.582095524991562 17.292723736758408 4.714367546600484 0 0 0
281 1 25.154390188084747 15.720590427683812 3.1427573689098267 0 0 0
282 1 26.726624586597804 17.292821938607332 4.714728379630552 0 0 0
283 1 28.29880786964392 15.72068250605755 3.142964511164933 0 0 0
284 1 29.870960560872977 17.29292764989672 4.715060309221402 0 0 0
285 1 31.44304156997424 15.720761804020947 3.1431479895746826 0 0 0
286 1 33.0151318872597 17.29300759974417 4.715305429354531 0 0 0
287 1 34.58717500346862 15.720817582510543 3.143262109111834 0 0 0
288 1 36.159201459510804 17.293050594787836 4.71542541259988 0 0 0
289 1 -0.0004892267083437215 -0.000489226704222973 6.28789387849794 0 0 0
290 1 1.5715976086357009 1.5715976086389496 7.860118279143786 0 0 0
291 1 3.1436956396603613 -0.0004928254072060022 6.2878913049001 0 0 0
292 1 4.715799162476938 1.5715838801839392 7.860089676103578 0 0 0
293 1 6.287895457348039 -0.0004877909574228324 6.287853418832671 0 0 0
294 1 7.860026695726944 1.571560628028977 7.860036995931841 0 0 0
295 1 9.432146929267443 -0.0004787620591142233 6.287788766243815 0 0 0
296 1 11.004309638267786 1.5715316076990453 7.859951526942696 0 0 0
297 1 12.576463870596855 -0.00047841041512780124 6.287719962546819 0 0 0
298 1 14.148664493486878 1.571506265427823 7.859869950811522 0 0 0
299 1 15.720852436332883 -0.0004798387706545382 6.287656405242882 0 0 0
300 1 17.293068708951886 1.5714922790217198 7.859808247055511 0 0 0
301 1 18.865280358669583 -0.0004880755655345941 6.287620512070798 0 0 0
302 1 20.437500627556282 1.5714938629302462 7.85979223384314 0 0 0
303 1 22.0097108663759 -0.0004889168254209623 6.287628097715717 0 0 0
304 1 23.581921638224888 1.5715139134071985 7.859824717431929 0 0 0
305 1 25.154121768584375 -0.00047739416254517227 6.287672366238534 0 0 0
306 1 26.726300372187097 1.5715471846974554 7.859892747990319 0 0 0
307 1 28.298489914080122 -0.0004683578469657358 6.2877338541523 0 0 0
308 1 29.870631053485628 1.5715806744672898 7.859972131291394 0 0 0
309 1 31.442790142494186 -0.0004632540744166641 6.287797607499337 0 0 0
310 1 33.01489582463198 1.5716012043650511 7.860051970261197 0 0 0
311 1 34.5870267332696 -0.0004759703875661977 6.287858787053289 0 0 0
312 1 36.15910577076659 1.5716034764434068 7.860099219896473 0 0 0
313 1 -0.000492825410773505 3.143695639663023 6.28789130489926 0 0 0
314 1 1.571583880181363 4.715799162479318 7.860089676102745 0 0 0
315 1 3.143684428770636 3.1436844287738333 6.287883287508153 0 0 0
316 1 4.715757336891641 4.715757336894634 7.860057226296534 0 0 0
317 1 6.287874396136219 3.1436475354150715 6.287838146455425 0 0 0
318 1 7.859958048441433 4.7156763870379415 7.859984152500422 0 0 0
319 1 9.4321180023615 3.1435917607606343 6.287763929465768 0 0 0
320 1 11.004232053874864 4.715575741685893 7.85987625831822 0 0 0
321 1 12.576436094998192 3.143543720751055 6.287687361115777 0 0 0
322 1 14.148593939607647 4.715500471555181 7.859770859965008 0 0 0
323 1 15.720836307292576 3.143510849865724 6.287620954805754 0 0 0
324 1 17.29304090304511 4.71546587345651 7.859702949715144 0 0 0
325 1 18.865283691090088 3.143507073839927 6.287587767241013 0 0 0
326 1 20.43751038281621 4.715474365382365 7.859686383238305 0 0 0
327 1 22.00973381992349 3.1435222341018054 6.287600323375207 0 0 0
328 1 23.58196157379251 4.715524635538719 7.859741578009304 0 0 0
329 1 25.15415443557316 3.143551162670415 6.2876534066305485 0 0 0
330 1 26.726365100959196 4.715598725678783 7.859832453677002 0 0 0
331 1 28.29851748995124 3.1435979377570904 6.287727554189491 0 0 0
332 1 29.870682569805346 4.715678323081684 7.859938733993282 0 0 0
333 1 31.442804848504064 3.1436424359088755 6.287799504446855 0 0 0
334 1 33.01492933771922 4.715753035889944 7.860030822370217 0 0 0
335 1 34.58702971164411 3.1436813039772535 6.287861353105375 0 0 0
336 1 36.15911691481262 4.7157955679072865 7.8600814261309715 0 0 0
337 1 -0.0004877909591914763 6.28789545734922 6.287853418830589 0 0 0
338 1 1.5715606280286183 7.860026695728441 7.86003699593015 0 0 0
339 1 3.1436475354124007 6.287874396139159 6.287838146454913 0 0 0
340 1 4.71567638703594 7.859958048445124 7.859984152500451 0 0 0
341 1 6.2877998065152605 6.287799806518553 6.28777662846659 0 0 0
342 1 7.859822742930647 7.859822742934697 7.85985106647792 0 0 0
343 1 9.432008095163168 6.287691270526224 6.287660162852691 0 0 0
344 1 11.004042876883325 7.859631300608593 7.85965623917655 0 0 0
345 1 12.576331275854287 6.287587296967744 6.287534643848287 0 0 0
346 1 14.148425034914272 7.8594896393776645 7.859476036360024 0 0 0
347 1 15.720758715133488 6.287525355681986 6.28743481588377 0 0 0
348 1 17.29293086603475 7.85942532940447 7.859367702887398 0 0 0
349 1 18.865259546934077 6.287515506076159 6.287394198136861 0 0 0
350 1 20.43749405475783 7.859450547194092 7.859359746678191 0 0 0
351 1 22.009762769628644 6.287549672482921 6.287420674452392 0 0 0
352 1 23.58202952157142 7.859536377989036 7.859454116556084 0 0 0
353 1 25.154226148898175 6.2876168945175195 6.28750401752833 0 0 0
354 1 26.726474580372297 7.8596669554037275 7.859611606277864 0 0 0
355 1 28.298598187104044 6.287702713379103 6.287620554350916 0 0 0
356 1 29.870800039979695 7.859809673344824 7.859788763305395 0 0 0
357 1 31.442879072833513 6.287792484020109 6.287734157027871 0 0 0
358 1 33.01500053815641 7.859946403561705 7.859941548217399 0 0 0
359 1 34.5870677355107 6.287863532592016 6.287823390668213 0 0 0
360 1 36.15914545525647 7.860018040779328 7.860028314710283 0 0 0
361 1 -0.0004787620581483217 9.432146929267546 6.28778876624036 0 0 0
362 1 1.5715316077020283 11.004309638269207 7.859951526940501 0 0 0
363 1 3.143591760759588 9.432118002364495 6.287763929465351 0 0 0
364 1 4.715575741686762 11.004232053880148 7.859876258319721 0 0 0
365 1 6.287691270523996 9.432008095167765 6.28766016285354 0 0 0
366 1 7.859631300607474 11.004042876891706 7.85965623917998 0 0 0
367 1 9.43183243775477 9.431832437759525 6.287472487750339 0 0 0
368 1 11.00374857215485 11.003748572162811 7.859306018856939 0 0 0
369 1 12.576137194179632 9.43165802330226 6.287252815146424 0 0 0
370 1 14.148117122906859 11.00349519333062 7.858975300631903 0 0 0
371 1 15.720607265880929 9.431553980650603 6.28708686387433 0 0 0
372 1 17.292731629007587 11.003392947817455 7.8588161065385425 0 0 0
373 1 18.865194105475734 9.431535738947472 6.287028219994071 0 0 0
374 1 20.437430610642334 11.003413852202053 7.8588140826769415 0 0 0
375 1 22.00979048202651 9.431591281352944 6.287081540058805 0 0 0
376 1 23.58209588803806 11.003553224699765 7.858983479924542 0 0 0
377 1 25.154323940317727 9.431701631258093 6.2872254507061385 0 0 0
378 1 26.72662323003168 11.00375469182992 7.85924044171693 0 0 0
379 1 28.29872363652326 9.431840565507853 6.287419347084952 0 0 0
380 1 29.87095015540524 11.003991666006188 7.859546701272529 0 0 0
381 1 31.442985004155943 9.431984813060021 6.287607416138364 0 0 0
382 1 33.01509166857345 11.004199212826936 7.859805866732574 0 0 0
383 1 34.5871197507393 9.432097796273885 6.2877383499657835 0 0 0
384 1 36.15917782426465 11.004303025915885 7.85994314539997 0 0 0
385 1 -0.0004784104115976152 12.576463870597129 6.287719962542493 0 0 0
386 1 1.5715062654339533 14.148664493489123 7.859869950809637 0 0 0
387 1 3.143543720752247 12.576436095001693 6.287687361116204 0 0 0
388 1 4.715500471560791 14.148593939614763 7.859770859969579 0 0 0
389 1 6.287587296968654 12.576331275861044 6.287534643852069 0 0 0
390 1 7.859489639385313 14.148425034928774 7.859476036371798 0 0 0
391 1 9.431658023301452 12.576137194189771 6.287252815151965 0 0 0
392 1 11.003495193335729 14.148117122930115 7.858975300648976 0 0 0
393 1 12.575864848058103 12.575864848067072 6.28683858330764 0 0 0
394 1 14.14766838171574 14.147668381732611 7.8582424854590665 0 0 0
395 1 15.720382374564318 12.57571362287434 6.286572286370524 0 0 0
396 1 17.292413866498467 14.147520527570034 7.857980244868075 0 0 0
397 1 18.86508043599603 12.575677558721432 6.2865006790762745 0 0 0
398 1 20.437324231255484 14.147545581450611 7.858021714232958 0 0 0
399 1 22.00979266908092 12.575747377677946 6.28659734486539 0 0 0
400 1 23.582163982688726 14.147706506611616 7.858303949507261 0 0 0
401 1 25.15441897612502 12.575896045152769 6.28682153506077 0 0 0
402 1 26.726786239871558 14.147965143941656 7.858718654162345 0 0 0
403 1 28.298857456228177 12.576084965857929 6.287123625962666 0 0 0
404 1 29.871014360723695 14.148333488802471 7.859320906096983 0 0 0
405 1 31.44306144599651 12.576301719814747 6.287456740390537 0 0 0
406 1 33.01512809306906 14.148546694786281 7.859666806981139 0 0 0
407 1 34.58716042092718 12.57642182095402 6.287642569085731 0 0 0
408 1 36.15919247417061 14.14864666119252 7.85984873371153 0 0 0
409 1 -0.00047983876545850334 15.720852436334042 6.287656405238373 0 0 0
410 1 1.571492279030238 17.293068708954767 7.859808247054525 0 0 0
411 1 3.143510849869396 15.720836307296288 6.2876209548075375 0 0 0
412 1 4.71546587346747 17.29304090305207 7.859702949723299 0 0 0
413 1 6.28752535568796 15.720758715141496 6.2874348158920315 0 0 0
414 1 7.859425329424507 17.292930866050927 7.859367702909963 0 0 0
415 1 9.431553980659238 15.720607265896435 6.2870868638908775 0 0 0
416 1 11.003392947849356 17.292731629040944 7.858816106585445 0 0 0
417 1 12.575713622879512 15.72038237458794 6.286572286393311 0 0 0
418 1 14.14752052759811 17.292413866548614 7.857980244934889 0 0 0
419 1 15.720154057605843 15.720154057622175 6.2860395308713946 0 0 0
420 1 17.292160422215538 17.292160422233028 7.857192833692465 0 0 0
421 1 18.86494531447274 15.720065660317669 6.285909512800346 0 0 0
422 1 20.437199814439726 17.292084998737945 7.85726008632522 0 0 0
423 1 22.009752300824882 15.720127484487948 6.286081228993191 0 0 0
424 1 23.58211052100183 17.292310375503778 7.857746880656053 0 0 0
425 1 25.154441020731145 15.720316266218473 6.286444385479447 0 0 0
426 1 26.7267125458746 17.292560215812166 7.858538694735794 0 0 0
427 1 28.29885774214609 15.720533010766822 6.286942485183542 0 0 0
428 1 29.870992546002235 17.29279063973639 7.859176570749518 0 0 0
429 1 31.443078463697727 15.720703857857677 6.287324614323012 0 0 0
430 1 33.01513259621689 17.292946238314443 7.859554171903763 0 0 0
431 1 34.58717496595305 15.72080987891491 6.287552644754907 0 0 0
432 1 36.15919347574196 17.293048552623336 7.8597767649993555 0 0 0
433 1 -0.0004999258234521926 -0.0004999258198724127 9.43231782714618 0 0 0
434 1 1.571592981719872 1.571592981722649 11.004511290573 0 0 0
435 1 3.1437030180176206 -0.0005084967978399924 9.432316480177569 0 0 0
436 1 4.715821276913029 1.5715744798519173 11.004501815338775 0 0 0
437 1 6.287931199595692 -0.0005107299846766573 9.432282030250352 0 0 0
438 1 7.860077397876757 1.5715427956231598 11.00445728685062 0 0 0