ITEM: TIMESTEP
782
ITEM: NUMBER OF ATOMS
3457
ITEM: BOX BOUNDS pp pp pp
-5.2545601271954817e-04 3.7731177456012787e+01
-5.2545600707212348e-04 3.7731177456006989e+01
-1.0110969498107944e-03 3.7731663096949767e+01
ITEM: ATOMS id x y z
1883 15.7205 18.8651 3.14251
2 1.5716 1.5716 1.57122
1889 25.1544 18.8652 3.1427
4 4.71577 1.5716 1.57121
2023 9.43154 18.8652 6.28703
6 7.85999 1.57159 1.57119
2027 15.7201 18.8649 6.28591
8 11.0043 1.57157 1.57116
2033 25.1544 18.865 6.28634
10 14.1486 1.57156 1.57115
2037 31.4431 18.8652 6.28724
12 17.2931 1.57156 1.57112
2171 15.7192 18.8645 9.42898
14 20.4375 1.57156 1.57112
2177 25.1546 18.8647 9.42978
16 23.582 1.57156 1.57113
665 25.1542 9.43145 12.576
18 26.7264 1.57157 1.57116
659 15.7204 9.43106 12.5758
20 29.8707 1.57158 1.57117
657 12.5761 9.43151 12.5761
22 33.0149 1.57159 1.5712
655 9.43186 9.43186 12.5763
24 36.1591 1.5716 1.57121
653 6.28772 9.4321 12.5765
26 1.5716 4.71577 1.57121
2305 37.7311 18.8653 12.5764
28 4.71575 4.71575 1.5712
2307 3.14344 18.8653 12.5764
30 7.85995 4.71571 1.57118
701 6.28739 15.7208 12.5763
32 11.0042 4.71566 1.57115
2317 18.8623 18.8623 12.5674
34 14.1486 4.71562 1.57113
2319 22.0102 18.8632 12.5694
36 17.293 4.71561 1.57111
703 9.43106 15.7204 12.5758
38 20.4375 4.71561 1.57111
643 28.2984 6.28777 12.5765
40 23.582 4.71563 1.57112
641 25.1541 6.2876 12.5763
42 26.7264 4.71566 1.57115
689 25.1546 12.5749 12.5752
44 29.8707 4.7157 1.57117
691 28.2987 12.5759 12.576
46 33.015 4.71574 1.57119
635 15.7208 6.28739 12.5763
48 36.1592 4.71577 1.57121
633 12.5764 6.28755 12.5764
50 1.57159 7.85999 1.57119
631 9.4321 6.28772 12.5765
52 4.71571 7.85995 1.57118
617 25.1541 3.14357 12.5765
54 7.85987 7.85987 1.57114
615 22.0097 3.14349 12.5764
56 11.0041 7.85979 1.5711
613 18.8653 3.14344 12.5764
58 14.1485 7.85974 1.57105
611 15.7209 3.14344 12.5765
60 17.293 7.85971 1.57104
609 12.5765 3.1435 12.5765
62 20.4375 7.85971 1.57103
595 28.2984 -0.000419126 12.5765
64 23.582 7.85975 1.57106
593 25.154 -0.000443023 12.5764
66 26.7265 7.85981 1.57109
591 22.0096 -0.000508244 12.5764
68 29.8708 7.85987 1.57113
667 28.2985 9.43186 12.5763
70 33.015 7.85994 1.57117
669 31.4428 9.43211 12.5765
72 36.1592 7.85998 1.57119
675 3.1435 12.5765 12.5765
74 1.57157 11.0043 1.57116
677 6.28755 12.5764 12.5764
76 4.71566 11.0042 1.57115
2183 34.5872 18.8652 9.43184
78 7.85979 11.0041 1.5711
2181 31.4431 18.865 9.43146
80 11.004 11.004 1.57104
2179 28.2989 18.8649 9.43087
82 14.1484 11.0039 1.57097
705 12.5742 15.7194 12.5747
84 17.2929 11.0039 1.57095
85 18.8653 9.4318 -0.00101108
86 20.4375 11.0039 1.57094
87 22.0098 9.43182 -0.00101108
88 23.5821 11.004 1.57098
2175 22.0095 18.8645 9.42878
90 26.7265 11.004 1.57103
2173 18.8644 18.8644 9.42817
92 29.8709 11.0041 1.57109
707 15.7163 15.7163 12.5714
94 33.0151 11.0042 1.57114
2169 12.5751 18.8649 9.43039
96 36.1592 11.0043 1.57117
2167 9.43127 18.8651 9.43123
98 1.57156 14.1486 1.57115
2165 6.28739 18.8652 9.43174
100 4.71562 14.1486 1.57113
2163 3.14347 18.8653 9.43195
102 7.85974 14.1485 1.57105
2161 37.7312 18.8653 9.43198
104 11.0039 14.1484 1.57097
2039 34.5872 18.8652 6.2875
106 14.1483 14.1483 1.57086
107 15.7206 12.5761 -0.00101091
108 17.2929 14.1483 1.57081
109 18.8652 12.5761 -0.00101091
110 20.4375 14.1483 1.57081
111 22.0098 12.5761 -0.00101095
112 23.5821 14.1483 1.57086
113 25.1544 12.5762 -0.00101094
114 26.7266 14.1484 1.57095
115 28.2987 12.5763 -0.00101108
116 29.8709 14.1485 1.57105
693 31.4428 12.5763 12.5763
118 33.0151 14.1486 1.5711
2035 28.2988 18.8651 6.28685
120 36.1592 14.1486 1.57115
695 34.587 12.5765 12.5765
122 1.57156 17.2931 1.57112
2031 22.0097 18.8649 6.28588
124 4.71561 17.293 1.57111
2029 18.8649 18.8649 6.28566
126 7.85971 17.293 1.57104
713 25.1566 15.7177 12.5727
128 11.0039 17.2929 1.57095
129 12.5761 15.7206 -0.00101091
130 14.1483 17.2929 1.57081
131 15.7206 15.7206 -0.00101099
132 17.2929 17.2929 1.57074
133 18.8652 15.7206 -0.00101095
134 20.4375 17.2929 1.57073
135 22.0098 15.7206 -0.00101097
136 23.5821 17.2929 1.57081
137 25.1544 15.7206 -0.00101104
138 26.7266 17.2929 1.57091
139 28.2988 15.7207 -0.00101094
140 29.8709 17.293 1.57103
2025 12.5757 18.8651 6.2865
142 33.0151 17.293 1.57109
715 28.2993 15.7199 12.5753
144 36.1592 17.293 1.57114
145 -0.000477693 -0.000477693 3.14345
146 1.5716 1.5716 4.71567
147 3.14369 -0.000477328 3.14344
148 4.71578 1.57159 4.71566
149 6.28788 -0.000474467 3.14342
150 7.86 1.57158 4.71561
151 9.43213 -0.000473339 3.14338
152 11.0043 1.57156 4.71556
153 12.5764 -0.000475937 3.14334
154 14.1486 1.57154 4.7155
155 15.7208 -0.000477109 3.1433
156 17.2931 1.57153 4.71546
157 18.8653 -0.000481156 3.14328
158 20.4375 1.57153 4.71545
159 22.0097 -0.000483224 3.14329
160 23.5819 1.57154 4.71548
161 25.1542 -0.000482609 3.14332
162 26.7263 1.57156 4.71552
163 28.2985 -0.000481527 3.14335
164 29.8707 1.57158 4.71558
165 31.4428 -0.000476745 3.14339
166 33.0149 1.57159 4.71563
167 34.587 -0.000475765 3.14343
168 36.1591 1.5716 4.71567
169 -0.000477328 3.14369 3.14344
170 1.57159 4.71578 4.71566
171 3.14368 3.14368 3.14344
172 4.71575 4.71575 4.71563
173 6.28786 3.14366 3.14341
174 7.85995 4.71569 4.71556
175 9.4321 3.14362 3.14337
176 11.0042 4.71562 4.71549
177 12.5764 3.14359 3.14332
178 14.1486 4.71557 4.71541
179 15.7208 3.14357 3.14328
180 17.293 4.71556 4.71536
181 18.8653 3.14357 3.14326
182 20.4375 4.71556 4.71536
183 22.0097 3.14358 3.14327
184 23.582 4.71559 4.71539
185 25.1542 3.1436 3.1433
186 26.7264 4.71563 4.71546
187 28.2985 3.14362 3.14334
188 29.8707 4.71569 4.71553
189 31.4428 3.14365 3.14339
190 33.015 4.71574 4.7156
191 34.587 3.14368 3.14343
192 36.1591 4.71577 4.71565
193 -0.000474467 6.28788 3.14342
194 1.57158 7.86 4.71561
195 3.14366 6.28786 3.14341
196 4.71569 7.85995 4.71556
197 6.28781 6.28781 3.14337
198 7.85984 7.85984 4.71548
199 9.43203 6.28773 3.14331
200 11.0041 7.85972 4.71535
201 12.5764 6.28766 3.14324
202 14.1485 7.85963 4.71524
203 15.7208 6.28762 3.14319
204 17.293 7.8596 4.71517
205 18.8653 6.28761 3.14317
206 20.4375 7.85961 4.71517
207 22.0098 6.28763 3.14319
208 23.582 7.85967 4.71522
209 25.1542 6.28767 3.14323
210 26.7265 7.85974 4.71533
211 28.2986 6.28773 3.14329
212 29.8708 7.85984 4.71544
213 31.4429 6.2878 3.14335
214 33.015 7.85993 4.71555
215 34.5871 6.28785 3.14339
216 36.1592 7.85999 4.7156
217 -0.000473339 9.43213 3.14338
218 1.57156 11.0043 4.71556
219 3.14362 9.4321 3.14337
220 4.71562 11.0042 4.71549
221 6.28773 9.43203 3.14331
222 7.85972 11.0041 4.71535
223 9.43192 9.43192 3.1432
224 11.0039 11.0039 4.71512
225 12.5762 9.43182 3.1431
226 14.1483 11.0038 4.71494
227 15.7207 9.43175 3.14302
228 17.2929 11.0037 4.71482
229 18.8652 9.43175 3.14299
230 20.4375 11.0038 4.71483
231 22.0098 9.43178 3.14302
232 23.5821 11.0038 4.71493
233 25.1543 9.43184 3.14309
234 26.7266 11.0039 4.7151
235 28.2987 9.43193 3.14319
236 29.8709 11.0041 4.71528
237 31.443 9.43202 3.14328
238 33.0151 11.0042 4.71546
239 34.5871 9.43209 3.14335
240 36.1592 11.0043 4.71553
241 -0.000475937 12.5764 3.14334
242 1.57154 14.1486 4.7155
243 3.14359 12.5764 3.14332
244 4.71557 14.1486 4.71541
245 6.28766 12.5764 3.14324
246 7.85963 14.1485 4.71524
247 9.43182 12.5762 3.1431
248 11.0038 14.1483 4.71494
249 12.5761 12.5761 3.14292
250 14.1482 14.1482 4.71459
251 15.7206 12.576 3.14278
252 17.2928 14.1481 4.71442
253 18.8652 12.576 3.14273
254 20.4375 14.1481 4.71446
255 22.0098 12.576 3.14278
256 23.5821 14.1482 4.71459
257 25.1544 12.5761 3.1429
258 26.7266 14.1483 4.71486
259 28.2988 12.5762 3.14306
260 29.871 14.1485 4.71516
261 31.443 12.5763 3.14321
262 33.0151 14.1486 4.71537
263 34.5872 12.5764 3.1433
264 36.1592 14.1486 4.71547
265 -0.000477109 15.7208 3.1433
266 1.57153 17.2931 4.71546
267 3.14357 15.7208 3.14328
268 4.71556 17.293 4.71536
269 6.28762 15.7208 3.14319
270 7.8596 17.293 4.71517
271 9.43175 15.7207 3.14302
272 11.0037 17.2929 4.71482
273 12.576 15.7206 3.14278
274 14.1481 17.2928 4.71442
275 15.7205 15.7205 3.14258
276 17.2927 17.2927 4.71412
277 18.8651 15.7205 3.14251
278 20.4374 17.2926 4.71415
279 22.0098 15.7205 3.14258
280 23.5821 17.2927 4.71437
281 25.1544 15.7206 3.14276
282 26.7266 17.2928 4.71473
283 28.2988 15.7207 3.14296
284 29.871 17.2929 4.71506
285 31.443 15.7208 3.14315
286 33.0151 17.293 4.71531
287 34.5872 15.7208 3.14326
288 36.1592 17.2931 4.71543
289 -0.000489227 -0.000489227 6.28789
290 1.5716 1.5716 7.86012
291 3.1437 -0.000492825 6.28789
292 4.7158 1.57158 7.86009
293 6.2879 -0.000487791 6.28785
294 7.86003 1.57156 7.86004
295 9.43215 -0.000478762 6.28779
296 11.0043 1.57153 7.85995
297 12.5765 -0.00047841 6.28772
298 14.1487 1.57151 7.85987
299 15.7209 -0.000479839 6.28766
300 17.2931 1.57149 7.85981
301 18.8653 -0.000488076 6.28762
302 20.4375 1.57149 7.85979
303 22.0097 -0.000488917 6.28763
304 23.5819 1.57151 7.85982
305 25.1541 -0.000477394 6.28767
306 26.7263 1.57155 7.85989
307 28.2985 -0.000468358 6.28773
308 29.8706 1.57158 7.85997
309 31.4428 -0.000463254 6.2878
310 33.0149 1.5716 7.86005
311 34.587 -0.00047597 6.28786
312 36.1591 1.5716 7.8601
313 -0.000492825 3.1437 6.28789
314 1.57158 4.7158 7.86009
315 3.14368 3.14368 6.28788
316 4.71576 4.71576 7.86006
317 6.28787 3.14365 6.28784
318 7.85996 4.71568 7.85998
319 9.43212 3.14359 6.28776
320 11.0042 4.71558 7.85988
321 12.5764 3.14354 6.28769
322 14.1486 4.7155 7.85977
323 15.7208 3.14351 6.28762
324 17.293 4.71547 7.8597
325 18.8653 3.14351 6.28759
326 20.4375 4.71547 7.85969
327 22.0097 3.14352 6.2876
328 23.582 4.71552 7.85974
329 25.1542 3.14355 6.28765
330 26.7264 4.7156 7.85983
331 28.2985 3.1436 6.28773
332 29.8707 4.71568 7.85994
333 31.4428 3.14364 6.2878
334 33.0149 4.71575 7.86003
335 34.587 3.14368 6.28786
336 36.1591 4.7158 7.86008
337 -0.000487791 6.2879 6.28785
338 1.57156 7.86003 7.86004
339 3.14365 6.28787 6.28784
340 4.71568 7.85996 7.85998
341 6.2878 6.2878 6.28778
342 7.85982 7.85982 7.85985
343 9.43201 6.28769 6.28766
344 11.004 7.85963 7.85966
345 12.5763 6.28759 6.28753
346 14.1484 7.85949 7.85948
347 15.7208 6.28753 6.28743
348 17.2929 7.85943 7.85937
349 18.8653 6.28752 6.28739
350 20.4375 7.85945 7.85936
351 22.0098 6.28755 6.28742
352 23.582 7.85954 7.85945
353 25.1542 6.28762 6.2875
354 26.7265 7.85967 7.85961
355 28.2986 6.2877 6.28762
356 29.8708 7.85981 7.85979
357 31.4429 6.28779 6.28773
358 33.015 7.85995 7.85994
359 34.5871 6.28786 6.28782
360 36.1591 7.86002 7.86003
361 -0.000478762 9.43215 6.28779
362 1.57153 11.0043 7.85995
363 3.14359 9.43212 6.28776
364 4.71558 11.0042 7.85988
365 6.28769 9.43201 6.28766
366 7.85963 11.004 7.85966
367 9.43183 9.43183 6.28747
368 11.0037 11.0037 7.85931
369 12.5761 9.43166 6.28725
370 14.1481 11.0035 7.85898
371 15.7206 9.43155 6.28709
372 17.2927 11.0034 7.85882
373 18.8652 9.43154 6.28703
374 20.4374 11.0034 7.85881
375 22.0098 9.43159 6.28708
376 23.5821 11.0036 7.85898
377 25.1543 9.4317 6.28723
378 26.7266 11.0038 7.85924
379 28.2987 9.43184 6.28742
380 29.871 11.004 7.85955
381 31.443 9.43198 6.28761
382 33.0151 11.0042 7.85981
383 34.5871 9.4321 6.28774
384 36.1592 11.0043 7.85994
385 -0.00047841 12.5765 6.28772
386 1.57151 14.1487 7.85987
387 3.14354 12.5764 6.28769
388 4.7155 14.1486 7.85977
389 6.28759 12.5763 6.28753
390 7.85949 14.1484 7.85948
391 9.43166 12.5761 6.28725
392 11.0035 14.1481 7.85898
393 12.5759 12.5759 6.28684
394 14.1477 14.1477 7.85824
395 15.7204 12.5757 6.28657
396 17.2924 14.1475 7.85798
397 18.8651 12.5757 6.2865
398 20.4373 14.1475 7.85802
399 22.0098 12.5757 6.2866
400 23.5822 14.1477 7.8583
401 25.1544 12.5759 6.28682
402 26.7268 14.148 7.85872
403 28.2989 12.5761 6.28712
404 29.871 14.1483 7.85932
405 31.4431 12.5763 6.28746
406 33.0151 14.1485 7.85967
407 34.5872 12.5764 6.28764
408 36.1592 14.1486 7.85985
409 -0.000479839 15.7209 6.28766
410 1.57149 17.2931 7.85981
411 3.14351 15.7208 6.28762
412 4.71547 17.293 7.8597
413 6.28753 15.7208 6.28743
414 7.85943 17.2929 7.85937
415 9.43155 15.7206 6.28709
416 11.0034 17.2927 7.85882
417 12.5757 15.7204 6.28657
418 14.1475 17.2924 7.85798
419 15.7202 15.7202 6.28604
420 17.2922 17.2922 7.85719
421 18.8649 15.7201 6.28591
422 20.4372 17.2921 7.85726
423 22.0098 15.7201 6.28608
424 23.5821 17.2923 7.85775
425 25.1544 15.7203 6.28644
426 26.7267 17.2926 7.85854
427 28.2989 15.7205 6.28694
428 29.871 17.2928 7.85918
429 31.4431 15.7207 6.28732
430 33.0151 17.2929 7.85955
431 34.5872 15.7208 6.28755
432 36.1592 17.293 7.85978
433 -0.000499926 -0.000499926 9.43232
434 1.57159 1.57159 11.0045
435 3.1437 -0.000508497 9.43232
436 4.71582 1.57157 11.0045
437 6.28793 -0.00051073 9.43228
438 7.86008 1.57154 11.0045
439 9.43219 -0.000516477 9.43222
440 11.0044 1.5715 11.0044
683 15.7194 12.5742 12.5747
442 14.1487 1.57147 11.0043
681 12.5754 12.5754 12.5756
444 17.2931 1.57145 11.0042
679 9.43151 12.5761 12.5761
446 20.4375 1.57147 11.0042
447 22.0097 -0.0005196 9.43198
448 23.5819 1.57151 11.0042
449 25.1541 -0.000488592 9.43204
450 26.7262 1.57157 11.0043
451 28.2984 -0.000461169 9.43211
452 29.8706 1.5716 11.0044
453 31.4428 -0.00045593 9.4322
454 33.0148 1.57161 11.0045
455 34.587 -0.00047801 9.43228
456 36.1591 1.5716 11.0045
457 -0.000508497 3.1437 9.43232
458 1.57157 4.71582 11.0045
459 3.14369 3.14369 9.43231
460 4.71577 4.71577 11.0045
461 6.2879 3.14364 9.43227
462 7.86001 4.71569 11.0044
463 9.43216 3.14358 9.43219
464 11.0043 4.71558 11.0043
465 12.5765 3.14352 9.43209
466 14.1486 4.71547 11.0042
467 15.7209 3.14348 9.432
468 17.293 4.71543 11.0041
469 18.8653 3.14347 9.43195
470 20.4375 4.71544 11.0041
471 22.0097 3.1435 9.43197
472 23.5819 4.71552 11.0041
473 25.1541 3.14355 9.43204
474 26.7263 4.71562 11.0042
475 28.2985 3.14362 9.43212
476 29.8706 4.71573 11.0044
477 31.4428 3.14367 9.43222
478 33.0149 4.7158 11.0044
479 34.587 3.1437 9.43229
480 36.1591 4.71582 11.0045
481 -0.00051073 6.28793 9.43228
482 1.57154 7.86008 11.0045
483 3.14364 6.2879 9.43227
484 4.71569 7.86001 11.0044
485 6.28782 6.28782 9.4322
486 7.85986 7.85986 11.0043
487 9.43203 6.28768 9.43207
488 11.0041 7.85963 11.0041
489 12.5763 6.28751 9.43191
490 14.1484 7.85936 11.0039
491 15.7208 6.28741 9.43179
492 17.2929 7.85926 11.0038
493 18.8652 6.28739 9.43174
494 20.4374 7.8593 11.0038
495 22.0097 6.28745 9.43177
496 23.582 7.85943 11.0039
497 25.1542 6.28756 9.43188
498 26.7264 7.85963 11.004
499 28.2986 6.28768 9.43201
500 29.8707 7.85987 11.0042
501 31.4428 6.28782 9.43215
502 33.0149 7.86002 11.0044
503 34.587 6.2879 9.43225
504 36.1591 7.86008 11.0044
505 -0.000516477 9.43219 9.43222
506 1.5715 11.0044 11.0044
507 3.14358 9.43216 9.43219
508 4.71558 11.0043 11.0043
509 6.28768 9.43203 9.43207
510 7.85963 11.0041 11.0041
511 9.4318 9.4318 9.43185
512 11.0037 11.0037 11.0038
513 12.576 9.43147 9.43152
514 14.1478 11.0031 11.0032
515 15.7205 9.43129 9.43131
516 17.2925 11.0029 11.003
517 18.8651 9.43127 9.43123
518 20.4373 11.003 11.003
519 22.0097 9.43136 9.4313
520 23.5821 11.0032 11.0032
521 25.1543 9.43153 9.4315
522 26.7266 11.0035 11.0036
523 28.2987 9.43175 9.43174
524 29.8708 11.004 11.004
525 31.4429 9.43201 9.43201
526 33.015 11.0043 11.0043
527 34.5871 9.43215 9.43216
528 36.1591 11.0044 11.0044
529 37.7312 12.5765 9.43212
530 1.57147 14.1487 11.0043
531 3.14352 12.5765 9.43209
532 4.71547 14.1486 11.0042
533 6.28751 12.5763 9.43191
534 7.85936 14.1484 11.0039
535 9.43147 12.576 9.43152
536 11.0031 14.1478 11.0032
537 12.5754 12.5754 9.43088
538 14.1466 14.1466 11.0019
539 15.72 12.5751 9.43047
540 17.2918 14.1464 11.0016
541 18.8649 12.5751 9.43039
542 20.4372 14.1466 11.0017
543 22.0097 12.5752 9.43054
544 23.5823 14.1469 11.0021
545 25.1545 12.5755 9.43087
546 26.7273 14.1472 11.0026
547 28.299 12.5758 9.43128
548 29.8711 14.1481 11.0036
549 31.4431 12.5762 9.43178
550 33.0151 14.1485 11.0041
551 34.5871 12.5764 9.43203
552 36.1591 14.1487 11.0043
553 37.7312 15.7209 9.43204
554 1.57145 17.2931 11.0042
555 3.14348 15.7209 9.432
556 4.71543 17.293 11.0041
557 6.28741 15.7208 9.43179
558 7.85926 17.2929 11.0038
559 9.43129 15.7205 9.43131
560 11.0029 17.2925 11.003
561 12.5751 15.72 9.43047
562 14.1464 17.2918 11.0016
563 15.7192 15.7192 9.4291
564 17.2906 17.2906 10.999
565 18.8645 15.7192 9.42898
566 20.4369 17.2907 10.9994
567 22.0098 15.7193 9.42932
568 23.5827 17.2913 11.0003
569 25.1548 15.7197 9.42988
570 26.7271 17.2922 11.0024
571 28.299 15.7203 9.43102
572 29.871 17.2926 11.0034
573 31.4431 15.7206 9.43161
574 33.0151 17.2929 11.0039
575 34.5872 15.7208 9.43192
576 36.1591 17.293 11.0042
2021 6.28752 18.8653 6.28739
2019 3.14351 18.8653 6.28759
2017 -0.000488076 18.8653 6.28762
1735 9.4318 18.8653 -0.00101108
1737 12.5761 18.8652 -0.00101091
1739 15.7206 18.8652 -0.00101095
699 3.14344 15.7209 12.5765
697 37.7311 15.7209 12.5765
1745 25.1544 18.8652 -0.00101097
1747 28.2988 18.8652 -0.00101093
1749 31.443 18.8653 -0.00101104
1895 34.5872 18.8653 3.14324
1873 -0.000481156 18.8653 3.14328
1875 3.14357 18.8653 3.14326
1877 6.28761 18.8653 3.14317
1879 9.43175 18.8652 3.14299
1881 12.576 18.8652 3.14273
719 34.587 15.7208 12.5764
1885 18.8651 18.8651 3.14241
1887 22.0098 18.8651 3.14249
717 31.443 15.7205 12.5761
1891 28.2988 18.8652 3.14291
1893 31.443 18.8652 3.14312
687 22.0097 12.5746 12.5748
2315 15.7172 18.8635 12.5719
2321 25.1556 18.8644 12.5732
2323 28.2993 18.8648 12.5751
2313 12.5743 18.8646 12.5746
2327 34.5871 18.8651 12.5762
2309 6.28737 18.8652 12.5762
2325 31.4431 18.8649 12.5759
2311 9.43103 18.865 12.5757
685 18.8646 12.5743 12.5746
639 22.0097 6.28745 12.5762
637 18.8652 6.28737 12.5762
661 18.865 9.43103 12.5757
663 22.0097 9.43119 12.5758
709 18.8635 15.7172 12.5719
711 22.0102 15.7178 12.5725
1743 22.0098 18.8652 -0.00101094
1741 18.8652 18.8652 -0.00101105
2759 34.587 18.8651 22.0099
578 1.57159 1.57159 14.1489
2757 31.443 18.865 22.0101
580 4.71586 1.57157 14.1489
2755 28.2995 18.8652 22.0105
582 7.86014 1.57153 14.1488
2753 25.1583 18.8642 22.0128
584 11.0045 1.57148 14.1488
2751 22.0314 18.8406 22.0344
586 14.1488 1.57143 14.1487
2749 18.8334 18.8334 22.0419
588 17.2931 1.57142 14.1487
2747 15.7132 18.8622 22.0139
590 20.4375 1.57147 14.1486
2745 12.5742 18.8646 22.0106
592 23.5818 1.57154 14.1487
2743 9.43124 18.865 22.01
594 26.7262 1.57161 14.1487
2741 6.28746 18.8652 22.0098
596 29.8705 1.57163 14.1488
2739 3.14348 18.8653 22.0098
598 33.0148 1.57162 14.1488
2737 37.7311 18.8652 22.0098
600 36.159 1.5716 14.1489
2615 34.5869 18.8651 18.8653
602 1.57157 4.71586 14.1489
2613 31.4426 18.8651 18.8653
604 4.71581 4.71581 14.1488
1107 3.14352 12.5766 22.0097
606 7.86007 4.71573 14.1488
1106 1.57143 14.1488 23.5819
608 11.0044 4.71561 14.1487
2607 22.009 18.8568 18.8653
610 14.1487 4.7155 14.1487
1105 37.7311 12.5766 22.0097
612 17.2931 4.71544 14.1486
1104 36.159 11.0045 23.5819
614 20.4375 4.71547 14.1486
2601 12.5762 18.8648 18.8653
616 23.5819 4.71557 14.1486
2599 9.43172 18.865 18.8653
618 26.7262 4.7157 14.1487
2597 6.2876 18.8652 18.8653
620 29.8705 4.71579 14.1488
2595 3.1435 18.8653 18.8653
622 33.0148 4.71585 14.1488
2593 37.7311 18.8652 18.8653
624 36.159 4.71587 14.1489
2471 34.587 18.8651 15.7208
626 1.57153 7.86014 14.1488
2469 31.443 18.865 15.7206
628 4.71573 7.86007 14.1488
2467 28.2995 18.8652 15.7201
630 7.85992 7.85992 14.1487
2465 25.1583 18.8642 15.7178
632 11.0042 7.85971 14.1486
2463 22.0313 18.8406 15.6963
634 14.1485 7.85948 14.1485
2461 18.8335 18.8335 15.6888
636 17.2929 7.85928 14.1484
2459 15.7132 18.8622 15.7167
638 20.4374 7.85934 14.1484
2457 12.5742 18.8646 15.72
640 23.5819 7.85953 14.1485
2455 9.43124 18.865 15.7206
642 26.7262 7.85979 14.1486
2453 6.28746 18.8652 15.7208
644 29.8706 7.85999 14.1487
2451 3.14348 18.8653 15.7209
646 33.0148 7.8601 14.1488
2449 37.7311 18.8652 15.7209
648 36.159 7.86016 14.1488
1152 36.159 17.293 23.582
650 1.57148 11.0045 14.1488
1151 34.5868 15.7208 22.0098
652 4.71561 11.0044 14.1487
1150 33.0149 17.2929 23.5822
654 7.85971 11.0042 14.1486
1149 31.4426 15.7207 22.0099
656 11.0038 11.0038 14.1484
1148 29.8711 17.2926 23.5825
658 14.148 11.0033 14.1482
1147 28.2984 15.7206 22.0099
660 17.2924 11.0026 14.1478
1103 34.5869 9.43232 22.0097
662 20.4372 11.0028 14.1478
1102 33.0148 11.0044 23.5819
664 23.5819 11.0032 14.1481
1146 26.7283 17.2918 23.5839
666 26.7263 11.0038 14.1484
1145 25.1549 15.7194 22.011
668 29.8706 11.0042 14.1486
1144 23.5889 17.285 23.5914
670 33.0148 11.0044 14.1487
1143 22.0101 15.7152 22.013
672 36.159 11.0045 14.1488
1142 20.4365 17.2862 23.5912
674 1.57143 14.1488 14.1487
1141 18.8622 15.7132 22.0139
676 4.7155 14.1487 14.1487
1140 17.2817 17.2817 23.5943
678 7.85948 14.1485 14.1485
1139 15.7184 15.7184 22.0111
680 11.0033 14.148 14.1482
1138 14.1444 17.2907 23.5848
682 14.147 14.147 14.1475
1137 12.5751 15.72 22.0102
684 17.2907 14.1444 14.1459
1136 11.0026 17.2924 23.5828
686 20.4369 14.1452 14.1458
1135 9.43139 15.7205 22.01
688 23.5826 14.1457 14.1466
1134 7.85928 17.2929 23.5823
690 26.7267 14.1477 14.1479
1133 6.2875 15.7208 22.0098
692 29.8706 14.1484 14.1484
1132 4.71544 17.2931 23.582
694 33.0148 14.1486 14.1486
1131 3.14347 15.7209 22.0098
696 36.159 14.1487 14.1487
1130 1.57142 17.2931 23.582
698 1.57142 17.2931 14.1487
1129 37.731 15.7209 22.0097
700 4.71544 17.2931 14.1486
1128 36.159 14.1487 23.5819
702 7.85928 17.2929 14.1484
1127 34.5868 12.5766 22.0097
704 11.0026 17.2924 14.1478
1126 33.0148 14.1486 23.582
706 14.1444 17.2907 14.1459
1125 31.4426 12.5765 22.0098
708 17.2817 17.2817 14.1364
1124 29.8706 14.1484 23.5822
710 20.4365 17.2862 14.1395
1123 28.2983 12.5763 22.0099
712 23.5889 17.285 14.1393
1122 26.7267 14.1477 23.5828
714 26.7283 17.2918 14.1468
1121 25.1539 12.5758 22.0101
716 29.8711 17.2926 14.1481
1120 23.5826 14.1457 23.584
718 33.0149 17.2929 14.1485
1119 22.0093 12.5748 22.0104
720 36.159 17.293 14.1486
1101 31.4426 9.43222 22.0097
722 1.57159 1.57159 17.2932
1100 29.8706 11.0042 23.5821
724 4.71588 1.57156 17.2932
1099 28.2983 9.43206 22.0098
726 7.86018 1.57152 17.2932
1098 26.7263 11.0038 23.5823
728 11.0045 1.57146 17.2932
1097 25.1539 9.43181 22.0099
730 14.1488 1.57141 17.2931
1096 23.5819 11.0032 23.5826
732 17.2931 1.57141 17.2931
1095 22.0095 9.43147 22.01
734 20.4374 1.57149 17.2931
735 22.0096 -0.00049699 15.7209
736 23.5818 1.57159 17.2931
737 25.154 -0.000403288 15.7209
738 26.7261 1.57164 17.2931
739 28.2983 -0.000406525 15.7209
740 29.8705 1.57164 17.2931
741 31.4426 -0.000466036 15.721
742 33.0147 1.57161 17.2932
743 34.5869 -0.00051513 15.721
744 36.159 1.5716 17.2932
745 37.7312 3.14373 15.721
746 1.57156 4.71588 17.2932
747 3.14371 3.14371 15.721
748 4.71583 4.71583 17.2932
749 6.28799 3.14366 15.721
750 7.86011 4.71575 17.2932
751 9.43229 3.1436 15.721
752 11.0044 4.71564 17.2931
753 12.5766 3.14352 15.7209
754 14.1487 4.71554 17.2931
755 15.7209 3.14347 15.7209
756 17.2931 4.71552 17.2931
757 18.8653 3.14348 15.7209
758 20.4375 4.71557 17.2931
759 22.0096 3.14355 15.7209
760 23.5818 4.71568 17.2931
761 25.154 3.14364 15.7209
762 26.7262 4.71577 17.2931
763 28.2983 3.14371 15.7209
764 29.8705 4.71584 17.2931
765 31.4426 3.14373 15.721
766 33.0147 4.71588 17.2932
767 34.5869 3.14374 15.721
768 36.159 4.71589 17.2932
769 37.7311 6.28803 15.721
770 1.57152 7.86018 17.2932
771 3.14366 6.28799 15.721
772 4.71575 7.86011 17.2932
773 6.28791 6.28791 15.721
774 7.85997 7.85997 17.2931
775 9.43216 6.28777 15.7209
776 11.0042 7.85978 17.2931
777 12.5765 6.28761 15.7209
778 14.1485 7.85958 17.2931
779 15.7208 6.28749 15.7208
780 17.2929 7.85953 17.2931
781 18.8652 6.28746 15.7208
782 20.4374 7.85963 17.2931
783 22.0096 6.28758 15.7208
784 23.5818 7.85979 17.2931
785 25.154 6.28774 15.7209
786 26.7261 7.85994 17.2931
787 28.2983 6.28787 15.7209
788 29.8705 7.86008 17.2931
789 31.4426 6.28797 15.721
790 33.0147 7.86017 17.2932
791 34.5869 6.28802 15.721
792 36.159 7.8602 17.2932
793 37.7311 9.43234 15.721
794 1.57146 11.0045 17.2932
795 3.1436 9.43229 15.721
796 4.71564 11.0044 17.2931
797 6.28777 9.43216 15.7209
798 7.85978 11.0042 17.2931
799 9.43194 9.43194 15.7208
800 11.0039 11.0039 17.293
801 12.5762 9.43165 15.7207
802 14.1481 11.0035 17.2929
803 15.7205 9.43139 15.7207
804 17.2926 11.0035 17.293
805 18.865 9.43124 15.7206
806 20.4371 11.0036 17.293
807 22.0095 9.43147 15.7207
808 23.5816 11.0039 17.293
809 25.1539 9.43181 15.7208
810 26.726 11.0041 17.293
811 28.2983 9.43206 15.7208
812 29.8704 11.0043 17.2931
813 31.4426 9.43222 15.7209
814 33.0147 11.0044 17.2931
815 34.5869 9.43232 15.721
816 36.1589 11.0045 17.2931
817 37.731 12.5766 15.721
818 1.57141 14.1488 17.2931
819 3.14352 12.5766 15.7209
820 4.71554 14.1487 17.2931
821 6.28761 12.5765 15.7209
822 7.85958 14.1485 17.2931
823 9.43165 12.5762 15.7207
824 11.0035 14.1481 17.2929
825 12.5757 12.5757 15.7205
826 14.1475 14.1475 17.2928
827 15.72 12.5751 15.7204
828 17.292 14.1472 17.2932
829 18.8646 12.5742 15.72
830 20.4366 14.1478 17.2924
831 22.0093 12.5748 15.7202
832 23.5814 14.1478 17.2931
833 25.1539 12.5758 15.7206
834 26.726 14.1485 17.293
835 28.2983 12.5763 15.7208
836 29.8703 14.1486 17.2931
837 31.4426 12.5765 15.7209
838 33.0146 14.1487 17.2931
839 34.5868 12.5766 15.7209
840 36.1589 14.1488 17.2931
841 37.731 15.7209 15.7209
842 1.57141 17.2931 17.2931
843 3.14347 15.7209 15.7209
844 4.71552 17.2931 17.2931
845 6.28749 15.7208 15.7208
846 7.85953 17.2929 17.2931
847 9.43139 15.7205 15.7207
848 11.0035 17.2926 17.293
849 12.5751 15.72 15.7204
850 14.1472 17.292 17.2932
851 15.7184 15.7184 15.7196
852 17.2897 17.2897 17.293
853 18.8622 15.7132 15.7167
854 20.435 17.2932 17.2834
855 22.0101 15.7152 15.7176
856 23.5838 17.2902 17.292
857 25.1549 15.7194 15.7197
858 26.7261 17.2934 17.2933
859 28.2984 15.7206 15.7207
860 29.8703 17.293 17.2931
861 31.4426 15.7207 15.7208
862 33.0147 17.2929 17.2931
863 34.5868 15.7208 15.7209
864 36.1589 17.293 17.2931
1094 20.4372 11.0028 23.5829
866 1.57159 1.57159 20.4375
1093 18.865 9.43124 22.01
868 4.71588 1.57156 20.4375
1092 17.2924 11.0026 23.5828
870 7.86018 1.57152 20.4375
1118 20.4369 14.1452 23.5848
872 11.0045 1.57146 20.4375
1117 18.8646 12.5742 22.0106
874 14.1488 1.57141 20.4375
1116 17.2907 14.1444 23.5848
876 17.2931 1.57141 20.4375
1115 15.72 12.5751 22.0102
878 20.4374 1.57149 20.4375
879 22.0096 -0.00047788 18.8653
880 23.5818 1.57159 20.4375
881 25.1539 -0.000376175 18.8653
882 26.7261 1.57164 20.4375
883 28.2983 -0.000394456 18.8653
884 29.8705 1.57164 20.4375
885 31.4426 -0.000463986 18.8653
886 33.0147 1.57161 20.4375
887 34.5869 -0.000525154 18.8653
888 36.159 1.5716 20.4375
889 37.7311 3.14375 18.8653
890 1.57156 4.71588 20.4375
891 3.14372 3.14372 18.8653
892 4.71583 4.71583 20.4375
893 6.28801 3.14367 18.8653
894 7.86011 4.71575 20.4375
895 9.43231 3.14359 18.8653
896 11.0044 4.71564 20.4375
897 12.5766 3.14351 18.8653
898 14.1487 4.71554 20.4375
899 15.721 3.14347 18.8653
900 17.2931 4.71552 20.4376
901 18.8653 3.1435 18.8653
902 20.4375 4.71557 20.4376
903 22.0096 3.14359 18.8653
904 23.5818 4.71568 20.4376
905 25.154 3.14367 18.8653
906 26.7262 4.71577 20.4375
907 28.2983 3.14372 18.8653
908 29.8705 4.71584 20.4375
909 31.4426 3.14374 18.8653
910 33.0147 4.71588 20.4375
911 34.5869 3.14375 18.8653
912 36.159 4.71589 20.4375
913 37.7311 6.28805 18.8653
914 1.57152 7.86018 20.4375
915 3.14367 6.28801 18.8653
916 4.71575 7.86011 20.4375
917 6.28792 6.28792 18.8653
918 7.85997 7.85997 20.4375
919 9.43218 6.2878 18.8653
920 11.0042 7.85978 20.4376
921 12.5765 6.28766 18.8653
922 14.1485 7.85958 20.4376
923 15.7208 6.28756 18.8653
924 17.2929 7.85953 20.4376
925 18.8652 6.2876 18.8653
926 20.4374 7.85963 20.4376
927 22.0096 6.2877 18.8653
928 23.5818 7.85979 20.4376
929 25.154 6.28782 18.8653
930 26.7261 7.85994 20.4376
931 28.2983 6.28793 18.8653
932 29.8705 7.86008 20.4375
933 31.4426 6.28801 18.8653
934 33.0147 7.86017 20.4375
935 34.5869 6.28804 18.8653
936 36.159 7.8602 20.4375
937 37.7311 9.43236 18.8653
938 1.57146 11.0045 20.4375
939 3.14359 9.43231 18.8653
940 4.71564 11.0044 20.4375
941 6.2878 9.43218 18.8653
942 7.85978 11.0042 20.4376
943 9.43198 9.43198 18.8653
944 11.0039 11.0039 20.4376
945 12.5762 9.43172 18.8653
946 14.1481 11.0035 20.4377
947 15.7205 9.43151 18.8653
948 17.2926 11.0035 20.4376
949 18.865 9.43172 18.8653
950 20.4371 11.0036 20.4376
951 22.0095 9.43186 18.8653
952 23.5816 11.0039 20.4376
953 25.1539 9.43197 18.8653
954 26.726 11.0041 20.4376
955 28.2982 9.43215 18.8653
956 29.8704 11.0043 20.4376
957 31.4426 9.43227 18.8653
958 33.0147 11.0044 20.4375
959 34.5868 9.43234 18.8653
960 36.1589 11.0045 20.4375
961 37.731 12.5767 18.8653
962 1.57141 14.1488 20.4375
963 3.14351 12.5766 18.8653
964 4.71554 14.1487 20.4375
965 6.28766 12.5765 18.8653
966 7.85958 14.1485 20.4376
967 9.43172 12.5762 18.8653
968 11.0035 14.1481 20.4377
969 12.5758 12.5758 18.8653
970 14.1475 14.1475 20.4378
971 15.7199 12.5753 18.8653
972 17.292 14.1472 20.4375
973 18.8648 12.5762 18.8653
974 20.4366 14.1478 20.4382
975 22.009 12.5763 18.8653
976 23.5814 14.1478 20.4375
977 25.1539 12.5761 18.8653
978 26.726 14.1485 20.4377
979 28.2981 12.5764 18.8653
980 29.8703 14.1486 20.4376
981 31.4425 12.5765 18.8653
982 33.0146 14.1487 20.4376
983 34.5868 12.5766 18.8653
984 36.1589 14.1488 20.4375
985 37.731 15.721 18.8653
986 1.57141 17.2931 20.4375
987 3.14347 15.721 18.8653
988 4.71552 17.2931 20.4376
989 6.28756 15.7208 18.8653
990 7.85953 17.2929 20.4376
991 9.43151 15.7205 18.8653
992 11.0035 17.2926 20.4376
993 12.5753 15.7199 18.8653
994 14.1472 17.292 20.4375
995 15.7191 15.7191 18.8653
996 17.2897 17.2897 20.4377
997 18.8658 15.7226 18.8653
998 20.435 17.2932 20.4472
999 22.0071 15.7218 18.8653
1000 23.5838 17.2902 20.4386
1001 25.1539 15.7206 18.8653
1002 26.7261 17.2934 20.4373
1003 28.2981 15.7208 18.8653
1004 29.8703 17.293 20.4375
1005 31.4424 15.7208 18.8653
1006 33.0147 17.2929 20.4376
1007 34.5868 15.7209 18.8653
1008 36.1589 17.293 20.4376
1114 14.147 14.147 23.5832
1010 1.57159 1.57159 23.5818
1113 12.5757 12.5757 22.0101
1012 4.71586 1.57157 23.5818
1112 11.0033 14.148 23.5825
1014 7.86014 1.57153 23.5818
1111 9.43165 12.5762 22.0099
1016 11.0045 1.57148 23.5819