ITEM: TIMESTEP
303
ITEM: NUMBER OF ATOMS
3457
ITEM: BOX BOUNDS pp pp pp
-3.4869472864651550e-04 3.7731000694728685e+01
-8.0330488499805034e-04 3.7731455304884967e+01
-8.0155277856980474e-04 3.7731453552778603e+01
ITEM: ATOMS id x y z
1157 6.28795 18.8653 12.5764
2 1.57176 1.57137 1.57133
3 3.14386 -0.000759842 -0.000801553
4 4.71596 1.57137 1.57132
1225 -0.000289875 18.8653 15.7209
6 7.86019 1.57137 1.5713
2077 18.8649 15.7182 12.5733
8 11.0045 1.57137 1.57128
9 12.5766 -0.000713047 -0.000801552
10 14.1488 1.57137 1.57127
11 15.721 -0.000704602 -0.000801552
12 17.2931 1.57137 1.57127
1017 12.5763 18.8652 6.28736
14 1.57177 4.71565 1.57133
15 3.14386 3.14351 -0.000801553
16 4.71595 4.71564 1.57132
17 6.28807 3.1435 -0.000801553
18 7.86017 4.71561 1.57129
947 15.7207 18.8652 3.1431
20 11.0044 4.71557 1.57128
21 12.5766 3.14346 -0.000801552
22 14.1488 4.71554 1.57126
23 15.721 3.14345 -0.000801552
24 17.2931 4.71553 1.57126
25 -0.000306233 6.28779 -0.000801552
26 1.57177 7.85996 1.57132
27 3.14385 6.2878 -0.000801553
28 4.71593 7.85994 1.57131
29 6.28804 6.28777 -0.000801553
30 7.86012 7.85989 1.57129
31 9.43229 6.28772 -0.000801552
32 11.0044 7.85983 1.57126
1299 3.14383 18.8653 18.8653
34 14.1487 7.85977 1.57125
145 -0.000332131 -0.000745736 6.28778
36 17.2931 7.85974 1.57124
1993 18.8652 12.5754 9.43085
38 1.57179 11.0043 1.57131
1981 18.8653 9.43128 9.43135
40 4.71591 11.0043 1.5713
41 6.28801 9.4321 -0.000801552
42 7.86008 11.0043 1.57128
43 9.43222 9.43203 -0.000801552
44 11.0043 11.0042 1.57125
45 12.5765 9.43196 -0.000801552
46 14.1486 11.0041 1.57122
47 15.7209 9.43191 -0.000801552
48 17.293 11.004 1.5712
49 -0.000255731 12.5765 -0.000801552
50 1.5718 14.1487 1.57131
1969 18.8653 6.28732 9.43167
52 4.7159 14.1487 1.5713
83 15.721 -0.000695658 3.14334
54 7.86005 14.1487 1.57129
55 9.43217 12.5764 -0.000801552
56 11.0043 14.1486 1.57126
57 12.5764 12.5764 -0.000801552
58 14.1486 14.1485 1.5712
59 15.7208 12.5763 -0.000801552
60 17.293 14.1485 1.57115
61 -0.000244131 15.7209 -0.000801552
62 1.5718 17.2931 1.5713
495 3.14373 15.7209 18.8653
64 4.71589 17.2931 1.5713
1921 18.8652 12.5758 6.28697
66 7.86003 17.2931 1.5713
67 9.43214 15.7209 -0.000801552
68 11.0042 17.2931 1.57127
69 12.5764 15.7208 -0.000801552
70 14.1485 17.293 1.5712
71 15.7207 15.7207 -0.000801552
72 17.2929 17.293 1.57111
73 -0.000325127 -0.000755173 3.14347
74 1.57175 1.57137 4.71562
2065 18.8651 12.5744 12.5749
76 4.71592 1.57137 4.71558
77 6.28805 -0.000743192 3.14342
78 7.86014 1.57137 4.71552
2005 18.8651 15.7197 9.43006
80 11.0044 1.57137 4.71547
1933 18.8652 15.7203 6.28661
82 14.1488 1.57137 4.71544
1909 18.8653 9.43161 6.28725
84 17.2931 1.57137 4.71544
85 -0.000325127 3.1435 3.14347
86 1.57175 4.71563 4.71561
87 3.14385 3.1435 3.14346
88 4.71591 4.71562 4.71557
89 6.28805 3.14349 3.14342
90 7.86012 4.71559 4.71551
91 9.4323 3.14347 3.14338
92 11.0044 4.71555 4.71545
93 12.5766 3.14345 3.14335
94 14.1487 4.71551 4.71542
95 15.721 3.14344 3.14334
96 17.2931 4.71549 4.71541
97 -0.000309014 6.28778 3.14346
98 1.57176 7.85993 4.71558
99 3.14384 6.28779 3.14344
100 4.71589 7.85992 4.71555
101 6.28802 6.28775 3.14341
102 7.86007 7.85986 4.71548
103 9.43225 6.2877 3.14337
104 11.0043 7.85978 4.71541
105 12.5766 6.28765 3.14333
106 14.1486 7.85971 4.71536
107 15.7209 6.28761 3.14331
108 17.293 7.85965 4.71533
1897 18.8653 6.28749 6.28745
110 1.57178 11.0043 4.71556
111 3.14384 9.43212 3.14343
112 4.71588 11.0043 4.71553
113 6.28798 9.43208 3.1434
114 7.86002 11.0042 4.71547
115 9.43218 9.43201 3.14334
116 11.0042 11.0041 4.71536
117 12.5765 9.43193 3.1433
118 14.1485 11.004 4.71526
119 15.7208 9.43187 3.14326
120 17.293 11.0039 4.71517
1235 15.7192 18.8642 15.7189
122 1.5718 14.1487 4.71555
123 3.14384 12.5765 3.14342
124 4.71588 14.1487 4.71553
125 6.28796 12.5765 3.14339
126 7.86 14.1487 4.71549
127 9.43213 12.5764 3.14335
128 11.0042 14.1486 4.71537
129 12.5764 12.5763 3.14326
130 14.1485 14.1484 4.71516
131 15.7207 12.5762 3.14317
132 17.2929 14.1483 4.71499
1233 12.576 18.8651 15.7204
134 1.57181 17.2931 4.71554
135 3.14384 15.7209 3.14342
136 4.7159 17.2931 4.71555
137 6.28795 15.7209 3.14341
138 7.86001 17.2931 4.71552
139 9.43211 15.7209 3.14337
140 11.0042 17.293 4.71541
141 12.5763 15.7208 3.14327
142 14.1485 17.2929 4.71518
143 15.7207 15.7207 3.14311
144 17.2929 17.2928 4.71485
1861 18.8652 15.7206 3.14298
146 1.57172 1.57137 7.85994
147 3.14381 -0.000744327 6.28775
148 4.71586 1.57137 7.85989
149 6.28799 -0.000732499 6.28769
150 7.86006 1.57137 7.85981
2881 18.8643 18.8632 12.5711
152 11.0043 1.57137 7.85973
875 15.7207 18.8652 -0.000801552
154 14.1487 1.57137 7.85969
2953 18.8592 18.854 15.712
156 17.2931 1.57137 7.85968
157 -0.000332131 3.14349 6.28778
158 1.57172 4.71561 7.85993
159 3.14381 3.14349 6.28775
160 4.71585 4.7156 7.85987
161 6.28799 3.14348 6.28769
162 7.86003 4.71556 7.85978
163 9.43223 3.14346 6.28762
164 11.0043 4.7155 7.85969
165 12.5765 3.14344 6.28756
166 14.1487 4.71544 7.85964
167 15.7209 3.14342 6.28754
168 17.2931 4.71541 7.85962
873 12.5764 18.8653 -0.000801552
170 1.57173 7.8599 7.8599
171 3.1438 6.28776 6.28773
172 4.71583 7.85988 7.85984
173 6.28796 6.28772 6.28766
174 7.85996 7.8598 7.85973
175 9.43217 6.28766 6.28757
176 11.0042 7.85967 7.8596
177 12.5765 6.28759 6.28751
178 14.1485 7.85954 7.85951
179 15.7208 6.28753 6.28746
180 17.293 7.85944 7.85944
181 -0.000288759 9.43208 6.28773
182 1.57175 11.0043 7.85987
183 3.1438 9.43209 6.2877
184 4.71582 11.0042 7.85982
185 6.28792 9.43205 6.28763
186 7.85989 11.0042 7.85969
187 9.43207 9.43194 6.28752
188 11.004 11.0039 7.85948
189 12.5763 9.43181 6.2874
190 14.1484 11.0037 7.85928
191 15.7208 9.43169 6.28731
192 17.2929 11.0036 7.85915
1229 6.28797 18.8653 15.7209
194 1.57179 14.1487 7.85986
195 3.14382 12.5765 6.28769
196 4.71584 14.1487 7.85982
197 6.2879 12.5765 6.28763
198 7.85991 14.1486 7.85973
199 9.43202 12.5763 6.28751
200 11.004 14.1484 7.85949
201 12.5762 12.5761 6.28728
202 14.1483 14.1481 7.85903
203 15.7207 12.576 6.28709
204 17.2928 14.1479 7.85874
1227 3.14384 18.8653 15.7209
206 1.57182 17.2931 7.85986
207 3.14384 15.7209 6.28769
208 4.71589 17.2931 7.85985
209 6.28792 15.7209 6.28766
210 7.85997 17.2931 7.85978
211 9.43204 15.7208 6.28756
212 11.0041 17.293 7.85958
213 12.5762 15.7207 6.28731
214 14.1483 17.2928 7.85911
215 15.7206 15.7204 6.2869
216 17.2927 17.2925 7.85834
1163 15.7203 18.8649 12.5747
218 1.5717 1.57137 11.0043
871 9.43213 18.8653 -0.000801552
220 4.71581 1.57137 11.0043
2137 18.8651 12.5728 15.7195
222 7.85998 1.57137 11.0042
223 9.43213 -0.000684027 9.43192
224 11.0043 1.57137 11.0041
225 12.5765 -0.000646563 9.43185
226 14.1486 1.57137 11.004
227 15.7209 -0.000620735 9.43182
228 17.2931 1.57137 11.004
1155 3.14386 18.8653 12.5765
230 1.5717 4.7156 11.0043
231 3.14377 3.14348 9.43209
232 4.7158 4.71558 11.0042
233 6.28791 3.14347 9.43202
234 7.85994 4.71552 11.0041
235 9.43213 3.14343 9.43192
236 11.0042 4.71541 11.004
237 12.5765 3.14339 9.43185
238 14.1486 4.71531 11.004
239 15.7209 3.14337 9.43182
240 17.2931 4.71528 11.0039
241 -0.00033468 6.28773 9.43211
242 1.5717 7.85988 11.0043
243 3.14376 6.28773 9.43207
244 4.71576 7.85984 11.0042
245 6.28787 6.28768 9.43198
246 7.85983 7.85971 11.0041
247 9.43204 6.28758 9.43185
248 11.004 7.85946 11.0039
249 12.5763 6.28744 9.43175
250 14.1484 7.85923 11.0038
251 15.7208 6.28735 9.43169
252 17.293 7.85913 11.0037
2593 18.8652 18.8652 -0.000801551
254 1.57171 11.0042 11.0043
255 3.14375 9.43205 9.43204
256 4.71573 11.0042 11.0042
257 6.28781 9.43199 9.43193
258 7.85972 11.004 11.004
259 9.43189 9.43179 9.43175
260 11.0037 11.0036 11.0037
261 12.5761 9.43153 9.43155
262 14.1481 11.0032 11.0033
263 15.7207 9.43135 9.43142
264 17.2928 11.003 11.0032
265 -0.000267748 12.5764 9.43206
266 1.57176 14.1487 11.0043
267 3.14377 12.5765 9.43203
268 4.71578 14.1486 11.0042
269 6.2878 12.5764 9.43193
270 7.85978 14.1485 11.0041
271 9.43183 12.5762 9.43171
272 11.0037 14.1481 11.0036
273 12.5759 12.5758 9.43127
274 14.1477 14.1474 11.0027
275 15.7205 12.5755 9.43098
276 17.2926 14.1471 11.0024
277 -0.000224634 15.7209 9.43205
278 1.57181 17.2931 11.0043
279 3.14382 15.7209 9.43204
280 4.71587 17.2931 11.0042
281 6.28788 15.7209 9.43198
282 7.85994 17.293 11.0041
283 9.43194 15.7207 9.43181
284 11.004 17.2929 11.0038
285 12.5761 15.7205 9.43136
286 14.1481 17.2926 11.0031
287 15.7203 15.7199 9.43046
288 17.2923 17.2917 11.0013
1153 -0.000226945 18.8653 12.5765
290 1.57169 1.57137 14.1487
865 -0.000239239 18.8653 -0.000801552
292 4.71577 1.57137 14.1487
943 9.43212 18.8653 3.14339
294 7.85993 1.57137 14.1486
295 9.43205 -0.00065461 12.5763
296 11.0042 1.57137 14.1485
297 12.5764 -0.000588872 12.5762
298 14.1486 1.57137 14.1485
299 15.7208 -0.000548471 12.5762
300 17.2931 1.57137 14.1485
1091 15.7205 18.865 9.43072
302 1.57168 4.71559 14.1487
303 3.14373 3.14347 12.5765
304 4.71575 4.71556 14.1486
305 6.28785 3.14345 12.5764
306 7.85987 4.71548 14.1486
307 9.43205 3.1434 12.5763
308 11.0041 4.71533 14.1485
309 12.5764 3.14334 12.5762
310 14.1485 4.71517 14.1484
311 15.7208 3.1433 12.5762
312 17.293 4.71511 14.1484
1087 9.43204 18.8652 9.43186
314 1.57167 7.85986 14.1487
315 3.14372 6.28771 12.5765
316 4.71571 7.85981 14.1486
317 6.2878 6.28765 12.5764
318 7.85974 7.85963 14.1485
319 9.43192 6.28748 12.5763
320 11.0038 7.85929 14.1484
321 12.5762 6.28724 12.5761
322 14.1482 7.85885 14.1482
323 15.7207 6.2871 12.576
324 17.2929 7.85869 14.1481
325 -0.000343999 9.43204 12.5765
326 1.57167 11.0042 14.1487
327 3.1437 9.43203 12.5764
328 4.71567 11.0042 14.1486
329 6.28771 9.43192 12.5763
330 7.85961 11.0039 14.1485
331 9.43172 9.43161 12.5761
332 11.0036 11.0033 14.1482
333 12.5759 9.43111 12.5758
334 14.1477 11.0023 14.1476
335 15.7205 9.43081 12.5757
336 17.2927 11.0021 14.1476
337 -0.000312902 12.5764 12.5765
338 1.57171 14.1487 14.1487
339 3.14371 12.5764 12.5764
340 4.71571 14.1486 14.1486
341 6.28768 12.5763 12.5763
342 7.85962 14.1483 14.1485
343 9.43157 12.5759 12.576
344 11.0033 14.1477 14.1479
345 12.5754 12.5751 12.5753
346 14.1464 14.1457 14.1463
347 15.7201 12.5745 12.5749
348 17.2921 14.1452 14.1463
349 -0.00026313 15.7209 12.5765
350 1.57177 17.2931 14.1487
351 3.14379 15.7209 12.5765
352 4.71585 17.2931 14.1487
353 6.28781 15.7208 12.5764
354 7.8599 17.293 14.1486
355 9.43178 15.7206 12.5761
356 11.0038 17.2928 14.1482
357 12.5756 15.72 12.5754
358 14.1474 17.2919 14.1472
359 15.7192 15.7185 12.5734
360 17.2901 17.2884 14.1426
81 12.5766 -0.000705596 3.14335
362 1.57168 1.57137 17.2931
2809 18.865 18.8647 9.42926
364 4.71576 1.57137 17.2931
945 12.5763 18.8653 3.14329
366 7.8599 1.57137 17.2931
367 9.432 -0.000633637 15.7208
368 11.0042 1.57137 17.2931
369 12.5763 -0.000547857 15.7208
370 14.1485 1.57137 17.293
371 15.7208 -0.000476348 15.7207
372 17.2931 1.57137 17.293
79 9.4323 -0.00072484 3.14338
374 1.57167 4.71558 17.2931
375 3.14372 3.14347 15.7209
376 4.71573 4.71555 17.2931
377 6.28782 3.14344 15.7208
378 7.85983 4.71545 17.2931
379 9.432 3.14338 15.7208
380 11.004 4.71529 17.293
381 12.5763 3.1433 15.7208
382 14.1484 4.71509 17.293
383 15.7208 3.14322 15.7207
384 17.293 4.71497 17.293
1085 6.28795 18.8653 9.43203
386 1.57165 7.85986 17.2931
387 3.14369 6.28769 15.7209
388 4.71567 7.85978 17.2931
389 6.28774 6.28761 15.7208
390 7.85969 7.85959 17.2931
391 9.43184 6.28741 15.7208
392 11.0038 7.85921 17.293
393 12.5761 6.28711 15.7207
394 14.1481 7.85865 17.2929
395 15.7206 6.28682 15.7206
396 17.2928 7.85826 17.2929
75 3.14385 -0.000756063 3.14346
398 1.57164 11.0042 17.2931
399 3.14366 9.43201 15.7209
400 4.71564 11.0041 17.2931
401 6.28765 9.43186 15.7208
402 7.85958 11.0038 17.293
403 9.43164 9.4315 15.7207
404 11.0035 11.0032 17.2929
405 12.5758 9.43087 15.7205
406 14.1476 11.002 17.2927
407 15.7202 9.43009 15.7202
408 17.2924 11.0007 17.2925
483 3.14366 12.5764 18.8653
410 1.57167 14.1487 17.2931
411 3.14367 12.5764 15.7209
412 4.71569 14.1486 17.2931
413 6.28762 12.5762 15.7208
414 7.85959 14.1483 17.293
415 9.43148 12.5758 15.7206
416 11.0032 14.1475 17.2928
417 12.5753 12.5747 15.7202
418 14.1465 14.1455 17.2923
419 15.7192 12.5726 15.7192
420 17.2903 14.1407 17.2908
421 -0.000327067 15.7209 15.7209
422 1.57173 17.2931 17.2931
423 3.14375 15.7209 15.7209
424 4.71584 17.2931 17.2931
425 6.28775 15.7207 15.7208
426 7.85985 17.2929 17.2931
427 9.43154 15.7204 15.7206
428 11.0035 17.2925 17.2929
429 12.5745 15.7192 15.7198
430 14.1451 17.2904 17.292
431 15.7153 15.7138 15.7152
432 17.2772 17.2732 17.2785
1729 18.8653 -0.000699123 -0.000801552
1741 18.8653 3.14345 -0.000801552
1083 3.14387 18.8653 9.43206
2665 18.8652 18.8652 3.14288
1081 -0.000197416 18.8653 9.43205
1789 18.8652 15.7207 -0.000801551
1019 15.7206 18.8651 6.28691
1015 9.43207 18.8653 6.2876
1013 6.28796 18.8653 6.28769
1837 18.8653 9.43182 3.14323
1849 18.8652 12.5761 3.14311
2737 18.8651 18.8651 6.28631
2149 18.8649 15.7144 15.7174
1 -0.000322705 -0.000759852 -0.000801552
441 12.5763 -0.000535031 18.8653
151 9.43223 -0.000710341 6.28762
443 15.7208 -0.000449574 18.8653
447 3.14371 3.14347 18.8653
1297 -0.000327333 18.8653 18.8653
453 12.5763 3.14328 18.8653
455 15.7208 3.1432 18.8653
5 6.28807 -0.000747848 -0.000801553
217 -0.000344269 -0.000736413 9.43213
473 6.28763 9.43183 18.8653
1801 18.8653 -0.000692561 3.14334
2125 18.8652 9.43008 15.7203
169 -0.000319106 6.28776 6.28776
133 -0.000233166 15.7209 3.14341
1873 18.8653 -0.000665731 6.28754
435 3.14371 -0.000720344 18.8653
2113 18.8653 6.28681 15.7206
1885 18.8653 3.14341 6.28754
121 -0.000253978 12.5765 3.14342
1825 18.8653 6.2876 3.14331
1813 18.8653 3.14344 3.14334
1777 18.8652 12.5762 -0.000801552
109 -0.000282598 9.43211 3.14344
13 -0.000322705 3.14351 -0.000801552
193 -0.000253987 12.5765 6.2877
2041 18.8653 6.28707 12.576
2053 18.8652 9.43075 12.5756
253 -0.000311448 9.43205 9.43208
229 -0.000344269 3.14348 9.43213
205 -0.000223904 15.7209 6.28769
1011 3.14386 18.8653 6.2877
365 6.28782 -0.000694248 15.7208
363 3.14372 -0.000719201 15.7209
293 6.28785 -0.000705547 12.5764
291 3.14373 -0.0007235 12.5765
221 6.28791 -0.00071698 9.43202
219 3.14377 -0.000733685 9.43209
1231 9.43208 18.8652 15.7207
155 15.7209 -0.000671963 6.28754
153 12.5765 -0.00068944 6.28756
941 6.28796 18.8653 3.14342
939 3.14384 18.8653 3.14341
1089 12.5762 18.8652 9.43148
1159 9.43204 18.8652 12.5762
937 -0.000227416 18.8653 3.14341
1009 -0.000205874 18.8653 6.28768
1161 12.5762 18.8651 12.5758
439 9.43198 -0.000626571 18.8653
1307 15.7185 18.8612 18.8653
869 6.28795 18.8653 -0.000801552
867 3.14384 18.8653 -0.000801552
449 6.2878 3.14344 18.8653
437 6.2878 -0.000687202 18.8653
451 9.43198 3.14337 18.8653
459 3.14368 6.28769 18.8653
461 6.28772 6.28759 18.8653
463 9.43182 6.28739 18.8653
65 6.28796 15.7209 -0.000801552
471 3.14365 9.432 18.8653
7 9.43232 -0.000728731 -0.000801553
63 3.14384 15.7209 -0.000801552
53 6.28798 12.5765 -0.000801552
51 3.14384 12.5765 -0.000801552
39 3.14385 9.43213 -0.000801552
2221 18.8635 15.7026 18.8653
35 15.7209 6.28764 -0.000801552
3025 18.8253 18.7472 18.8653
19 9.43232 3.14348 -0.000801553
33 12.5766 6.28767 -0.000801552
1753 18.8653 6.28762 -0.000801552
37 -0.000280618 9.43212 -0.000801552
1765 18.8653 9.43188 -0.000801552
1593 12.5763 18.8652 31.4433
434 1.57168 1.57137 20.4375
1369 -0.000289875 18.8653 22.0097
436 4.71576 1.57137 20.4376
2509 18.8652 15.7203 31.444
438 7.8599 1.57137 20.4376
1521 12.5762 18.8652 28.2992
440 11.0042 1.57137 20.4376
1445 6.28795 18.8653 25.1542
442 14.1485 1.57137 20.4376
2557 18.8653 9.43182 34.5874
444 17.2931 1.57137 20.4376
1449 12.5762 18.8651 25.1549
446 1.57167 4.71558 20.4375
1447 9.43204 18.8652 25.1544
448 4.71573 4.71555 20.4376
1659 3.14384 18.8653 34.5872
450 7.85983 4.71545 20.4376
507 3.14372 -0.000719201 22.0098
452 11.004 4.71529 20.4376
2293 18.8649 15.7144 22.0132
454 14.1484 4.71509 20.4376
2281 18.8651 12.5728 22.0112
456 17.293 4.71497 20.4377
2485 18.8653 9.43161 31.4434
458 1.57165 7.85986 20.4375
509 6.28782 -0.000694247 22.0098
460 4.71567 7.85978 20.4376
1661 6.28796 18.8653 34.5872
462 7.85969 7.85959 20.4376
1585 -0.000205873 18.8653 31.443
464 11.0038 7.85921 20.4377
1373 6.28797 18.8653 22.0098
466 14.1481 7.85865 20.4377
2209 18.865 12.5706 18.8653
468 17.2928 7.85826 20.4378
579 3.14373 -0.0007235 25.1542
470 1.57164 11.0042 20.4375
649 -0.000344269 -0.000736413 28.2985
472 4.71564 11.0041 20.4376
3313 18.8651 18.8651 31.4443
474 7.85958 11.0038 20.4376
1377 12.576 18.8651 22.0102
476 11.0035 11.0032 20.4377
1665 12.5763 18.8653 34.5874
478 14.1476 11.002 20.438
1667 15.7207 18.8652 34.5875
480 17.2924 11.0007 20.4382
1379 15.7192 18.8642 22.0117
482 1.57167 14.1487 20.4375
1441 -0.000226944 18.8653 25.1542
484 4.71569 14.1486 20.4376
1443 3.14386 18.8653 25.1542
486 7.85959 14.1483 20.4376
3241 18.865 18.8647 28.3014
488 11.0032 14.1475 20.4378
864 17.2929 17.293 36.1595
490 14.1465 14.1455 20.4384
491 15.7192 12.5724 18.8653
492 17.2903 14.1407 20.4399
863 15.7207 15.7207 34.5875
494 1.57173 17.2931 20.4375
862 14.1485 17.293 36.1594
496 4.71584 17.2931 20.4375
861 12.5763 15.7208 34.5874
498 7.85985 17.2929 20.4376
860 11.0042 17.2931 36.1594
500 11.0035 17.2925 20.4377
501 12.5746 15.7189 18.8653
502 14.1451 17.2904 20.4387
503 15.717 15.7143 18.8653
504 17.2772 17.2732 20.4521
1657 -0.000227416 18.8653 34.5872
506 1.57169 1.57137 23.5819
2437 18.8651 15.7197 28.3006
508 4.71577 1.57137 23.582
2365 18.8649 15.7182 25.1573
510 7.85993 1.57137 23.5821
511 9.432 -0.000633636 22.0098
512 11.0042 1.57137 23.5821
513 12.5763 -0.000547857 22.0099
514 14.1486 1.57137 23.5822
515 15.7208 -0.000476348 22.0099
516 17.2931 1.57137 23.5822
2449 18.8653 -0.000665731 31.4431
518 1.57168 4.71559 23.582
519 3.14372 3.14347 22.0098
520 4.71575 4.71556 23.582
521 6.28782 3.14344 22.0098
522 7.85987 4.71548 23.5821
523 9.432 3.14338 22.0098
524 11.0041 4.71533 23.5822
525 12.5763 3.1433 22.0099
526 14.1485 4.71517 23.5822
527 15.7208 3.14322 22.0099
528 17.293 4.71511 23.5823
2353 18.8651 12.5744 25.1558
530 1.57167 7.85986 23.582
531 3.14369 6.28769 22.0098
532 4.71571 7.85981 23.582
533 6.28774 6.28761 22.0098
534 7.85974 7.85963 23.5821
535 9.43184 6.28741 22.0099
536 11.0038 7.85929 23.5823
537 12.5761 6.28711 22.01
538 14.1482 7.85885 23.5825
539 15.7206 6.28682 22.0101
540 17.2929 7.85869 23.5825
2521 18.8653 -0.000692561 34.5873
542 1.57167 11.0042 23.582
543 3.14366 9.43201 22.0098
544 4.71567 11.0042 23.582
545 6.28765 9.43186 22.0098
546 7.85961 11.0039 23.5822
547 9.43164 9.4315 22.0099
548 11.0036 11.0033 23.5825
549 12.5758 9.43087 22.0102
550 14.1477 11.0023 23.583
551 15.7202 9.43009 22.0104
552 17.2927 11.0021 23.5831
581 6.28785 -0.000705547 25.1542
554 1.57171 14.1487 23.582
555 3.14367 12.5764 22.0098
556 4.71571 14.1486 23.582
557 6.28762 12.5762 22.0098
558 7.85962 14.1483 23.5822
559 9.43148 12.5758 22.01
560 11.0033 14.1477 23.5827
561 12.5753 12.5747 22.0105
562 14.1464 14.1457 23.5844
563 15.7192 12.5726 22.0115
564 17.2921 14.1452 23.5844
565 -0.000327067 15.7209 22.0097
566 1.57177 17.2931 23.582
567 3.14375 15.7209 22.0098
568 4.71585 17.2931 23.582
569 6.28775 15.7207 22.0098
570 7.8599 17.293 23.5821
571 9.43154 15.7204 22.01
572 11.0038 17.2928 23.5824
573 12.5745 15.7192 22.0109
574 14.1474 17.2919 23.5834
575 15.7153 15.7138 22.0154
576 17.2901 17.2884 23.5881
1595 15.7206 18.8651 31.4437
578 1.5717 1.57137 26.7263
2581 18.8652 15.7206 34.5877
580 4.71581 1.57137 26.7264
859 9.43211 15.7209 34.5873
582 7.85998 1.57137 26.7265
583 9.43205 -0.00065461 25.1543
584 11.0043 1.57137 26.7266
585 12.5764 -0.000588871 25.1544
586 14.1486 1.57137 26.7266
587 15.7208 -0.000548471 25.1544
588 17.2931 1.57137 26.7266
1591 9.43207 18.8653 31.4431
590 1.5717 4.7156 26.7264
591 3.14373 3.14347 25.1542
592 4.7158 4.71558 26.7264
593 6.28785 3.14345 25.1542
594 7.85994 4.71552 26.7265
595 9.43205 3.1434 25.1543
596 11.0042 4.71541 26.7266
597 12.5764 3.14334 25.1544
598 14.1486 4.71531 26.7267
599 15.7208 3.1433 25.1544
600 17.2931 4.71528 26.7267
1589 6.28796 18.8653 31.443
602 1.5717 7.85988 26.7264
603 3.14372 6.28771 25.1542
604 4.71576 7.85984 26.7265
605 6.2878 6.28765 25.1543
606 7.85983 7.85971 26.7266
607 9.43192 6.28748 25.1544
608 11.004 7.85946 26.7268
609 12.5762 6.28724 25.1545
610 14.1484 7.85923 26.7269
611 15.7207 6.2871 25.1546
612 17.293 7.85913 26.727
613 -0.000343998 9.43204 25.1542
614 1.57171 11.0042 26.7264
615 3.1437 9.43203 25.1542
616 4.71573 11.0042 26.7265
617 6.28771 9.43192 25.1543
618 7.85972 11.004 26.7266
619 9.43172 9.43161 25.1545
620 11.0037 11.0036 26.727
621 12.5759 9.43111 25.1548
622 14.1481 11.0032 26.7273
623 15.7205 9.43081 25.155
624 17.2928 11.003 26.7274
625 -0.000312901 12.5764 25.1542
626 1.57176 14.1487 26.7264
627 3.14371 12.5764 25.1542
628 4.71578 14.1486 26.7265
629 6.28768 12.5763 25.1543
630 7.85978 14.1485 26.7266
631 9.43157 12.5759 25.1546
632 11.0037 14.1481 26.727
633 12.5754 12.5751 25.1553
634 14.1477 14.1474 26.7279
635 15.7201 12.5745 25.1557
636 17.2926 14.1471 26.7282
637 -0.000263129 15.7209 25.1542
638 1.57181 17.2931 26.7264
639 3.14379 15.7209 25.1542
640 4.71587 17.2931 26.7264
641 6.28781 15.7208 25.1543
642 7.85994 17.293 26.7265
643 9.43178 15.7206 25.1545
644 11.004 17.2929 26.7268
645 12.5756 15.72 25.1552
646 14.1481 17.2926 26.7276
647 15.7192 15.7185 25.1572
648 17.2923 17.2917 26.7293
2569 18.8652 12.5761 34.5875
650 1.57172 1.57137 29.8707
1663 9.43212 18.8653 34.5873
652 4.71586 1.57137 29.8708
2497 18.8652 12.5758 31.4437
654 7.86006 1.57137 29.8708
655 9.43213 -0.000684027 28.2987
656 11.0043 1.57137 29.8709
657 12.5765 -0.000646563 28.2988
658 14.1487 1.57137 29.871
659 15.7209 -0.000620735 28.2988
660 17.2931 1.57137 29.871
3097 18.8592 18.854 22.0187
662 1.57172 4.71561 29.8707
663 3.14377 3.14348 28.2986
664 4.71585 4.7156 29.8708
665 6.28791 3.14347 28.2986
666 7.86003 4.71556 29.8709
667 9.43213 3.14343 28.2987
668 11.0043 4.7155 29.871
669 12.5765 3.14339 28.2988
670 14.1487 4.71544 29.871
671 15.7209 3.14337 28.2988
672 17.2931 4.71541 29.871
673 -0.00033468 6.28773 28.2985
674 1.57173 7.8599 29.8708
675 3.14376 6.28773 28.2986
676 4.71583 7.85988 29.8708
677 6.28787 6.28768 28.2987
678 7.85996 7.8598 29.8709
679 9.43204 6.28758 28.2988
680 11.0042 7.85967 29.8711
681 12.5763 6.28744 28.2989
682 14.1485 7.85954 29.8711
683 15.7208 6.28735 28.299
684 17.293 7.85944 29.8712
1523 15.7205 18.865 28.2999
686 1.57175 11.0043 29.8708
687 3.14375 9.43205 28.2986
688 4.71582 11.0042 29.8708
689 6.28781 9.43199 28.2987
690 7.85989 11.0042 29.871
691 9.43189 9.43179 28.2989
692 11.004 11.0039 29.8712
693 12.5761 9.43153 28.2991
694 14.1484 11.0037 29.8714
695 15.7207 9.43135 28.2992
696 17.2929 11.0036 29.8715
697 -0.000267747 12.5764 28.2986
698 1.57179 14.1487 29.8708
699 3.14377 12.5765 28.2986
700 4.71584 14.1487 29.8708
701 6.2878 12.5764 28.2987
702 7.85991 14.1486 29.8709
703 9.43183 12.5762 28.2989
704 11.004 14.1484 29.8712
705 12.5759 12.5758 28.2994
706 14.1483 14.1481 29.8716
707 15.7205 12.5755 28.2997
708 17.2928 14.1479 29.8719
709 -0.000224633 15.7209 28.2986
710 1.57182 17.2931 29.8708
711 3.14382 15.7209 28.2986
712 4.71589 17.2931 29.8708
713 6.28788 15.7209 28.2987
714 7.85997 17.2931 29.8709
715 9.43194 15.7207 28.2988
716 11.0041 17.293 29.8711
717 12.5761 15.7205 28.2993
718 14.1483 17.2928 29.8715
719 15.7203 15.7199 28.3002
720 17.2927 17.2925 29.8723
2473 18.8653 6.28749 31.4432
722 1.57175 1.57137 33.015
723 3.14381 -0.000744327 31.4429
724 4.71592 1.57137 33.0151
725 6.28799 -0.000732499 31.443
726 7.86014 1.57137 33.0151
3385 18.8652 18.8652 34.5878
728 11.0044 1.57137 33.0152
1371 3.14384 18.8653 22.0097
730 14.1488 1.57137 33.0152
2425 18.8652 12.5754 28.2998
732 17.2931 1.57137 33.0152
733 -0.00033213 3.14349 31.4429
734 1.57175 4.71563 33.015
735 3.14381 3.14349 31.4429
736 4.71591 4.71562 33.0151
737 6.28799 3.14348 31.443
738 7.86012 4.71559 33.0151
739 9.43223 3.14346 31.443
740 11.0044 4.71555 33.0152
741 12.5765 3.14344 31.4431
742 14.1487 4.71551 33.0152
743 15.7209 3.14342 31.4431
744 17.2931 4.71549 33.0152
1519 9.43204 18.8652 28.2988
746 1.57176 7.85993 33.0151
747 3.1438 6.28776 31.4429
748 4.71589 7.85992 33.0151
749 6.28796 6.28772 31.443
750 7.86007 7.85986 33.0152
751 9.43217 6.28766 31.4431
752 11.0043 7.85978 33.0152
753 12.5765 6.28759 31.4431
754 14.1486 7.85971 33.0153
755 15.7208 6.28753 31.4432
756 17.293 7.85965 33.0153
757 -0.000288759 9.43208 31.4429
758 1.57178 11.0043 33.0151
759 3.1438 9.43209 31.443
760 4.71588 11.0043 33.0151
761 6.28792 9.43205 31.443
762 7.86002 11.0042 33.0152
763 9.43207 9.43194 31.4431
764 11.0042 11.0041 33.0153
765 12.5763 9.43181 31.4432
766 14.1485 11.004 33.0154
767 15.7208 9.43169 31.4433
768 17.293 11.0039 33.0155
1517 6.28795 18.8653 28.2986
770 1.5718 14.1487 33.0151
771 3.14382 12.5765 31.443
772 4.71588 14.1487 33.0151
773 6.2879 12.5765 31.443
774 7.86 14.1487 33.0152
775 9.43202 12.5763 31.4431
776 11.0042 14.1486 33.0153
777 12.5762 12.5761 31.4434
778 14.1485 14.1484 33.0155
779 15.7207 12.576 31.4436
780 17.2929 14.1483 33.0157
1515 3.14387 18.8653 28.2986
782 1.57181 17.2931 33.0151
783 3.14384 15.7209 31.443
784 4.7159 17.2931 33.0151
785 6.28792 15.7209 31.443
786 7.86001 17.2931 33.0151
787 9.43204 15.7208 31.4431
788 11.0042 17.293 33.0152
789 12.5762 15.7207 31.4433
790 14.1485 17.2929 33.0155
791 15.7206 15.7204 31.4438
792 17.2929 17.2928 33.0158
793 -0.000325127 -0.000755173 34.5872
794 1.57176 1.57137 36.1593
2413 18.8653 9.43128 28.2993
796 4.71596 1.57137 36.1593
797 6.28805 -0.000743192 34.5872
798 7.86019 1.57137 36.1594
2401 18.8653 6.28732 28.299
800 11.0045 1.57137 36.1594
1587 3.14386 18.8653 31.443
802 14.1488 1.57137 36.1594
651 3.14377 -0.000733685 28.2986
804 17.2931 1.57137 36.1594
805 -0.000325127 3.1435 34.5872
806 1.57177 4.71565 36.1593
807 3.14385 3.1435 34.5872
808 4.71595 4.71564 36.1593
809 6.28805 3.14349 34.5872
810 7.86017 4.71561 36.1594
811 9.4323 3.14347 34.5873
812 11.0044 4.71557 36.1594
813 12.5766 3.14345 34.5873
814 14.1488 4.71554 36.1594
815 15.721 3.14344 34.5873
816 17.2931 4.71553 36.1594
817 -0.000309014 6.28778 34.5872
818 1.57177 7.85996 36.1593
819 3.14384 6.28779 34.5872
820 4.71593 7.85994 36.1593
821 6.28802 6.28775 34.5872
822 7.86012 7.85989 36.1594
823 9.43225 6.2877 34.5873
824 11.0044 7.85983 36.1594
825 12.5766 6.28765 34.5873
826 14.1487 7.85977 36.1594
827 15.7209 6.28761 34.5873
828 17.2931 7.85974 36.1594
3169 18.8643 18.8632 25.1596
830 1.57179 11.0043 36.1593
831 3.14384 9.43212 34.5872
832 4.71591 11.0043 36.1594
833 6.28798 9.43208 34.5873
834 7.86008 11.0043 36.1594
835 9.43218 9.43201 34.5873
836 11.0043 11.0042 36.1594
837 12.5765 9.43193 34.5874
838 14.1486 11.0041 36.1594
839 15.7208 9.43187 34.5874
840 17.293 11.004 36.1595
1513 -0.000197415 18.8653 28.2986
842 1.5718 14.1487 36.1593
843 3.14384 12.5765 34.5872
844 4.7159 14.1487 36.1594
845 6.28796 12.5765 34.5873
846 7.86005 14.1487 36.1594
847 9.43213 12.5764 34.5873
848 11.0043 14.1486 36.1594
849 12.5764 12.5763 34.5874
850 14.1486 14.1485 36.1595
851 15.7207 12.5762 34.5875
852 17.293 14.1485 36.1595
1451 15.7203 18.8649 25.1559
854 1.5718 17.2931 36.1593
855 3.14384 15.7209 34.5872
856 4.71589 17.2931 36.1593
857 6.28795 15.7209 34.5872
858 7.86003 17.2931 36.1594
653 6.28791 -0.00071698 28.2986
1305 12.576 18.8649 18.8653
721 -0.00033213 -0.000745736 31.4429
727 9.43223 -0.000710341 31.443
2545 18.8653 6.2876 34.5873
2533 18.8653 3.14344 34.5873
729 12.5765 -0.00068944 31.4431
685 -0.000311448 9.43205 28.2986
731 15.7209 -0.000671963 31.4431
661 -0.000344269 3.14348 28.2985
795 3.14385 -0.000756063 34.5872
745 -0.000319106 6.28776 31.4429
2461 18.8653 3.14341 31.4431
769 -0.000253987 12.5765 31.443
2269 18.8652 9.43008 22.0104
2257 18.8653 6.28681 22.0101
2329 18.8653 6.28707 25.1546
2341 18.8652 9.43075 25.155
853 -0.000233165 15.7209 34.5872
841 -0.000253978 12.5765 34.5872
829 -0.000282598 9.43211 34.5872
781 -0.000223903 15.7209 31.443
1375 9.43208 18.8652 22.0099
803 15.721 -0.000695658 34.5873
801 12.5766 -0.000705596 34.5873
799 9.4323 -0.00072484 34.5873
499 9.43152 15.7203 18.8653
497 6.28774 15.7207 18.8653
1303 9.43208 18.8652 18.8653
1301 6.28798 18.8653 18.8653
489 12.5752 12.5746 18.8653
487 9.43148 12.5757 18.8653
485 6.28761 12.5762 18.8653
479 15.7202 9.42988 18.8653
477 12.5757 9.43078 18.8653
465 12.5761 6.28706 18.8653
467 15.7206 6.28672 18.8653
475 9.43164 9.43148 18.8653
2185 18.8653 6.28665 18.8653
2197 18.8652 9.42953 18.8653
2989 18.8651 28.3022 15.7195
866 1.5718 20.4375 1.5713
2977 18.8649 25.1606 15.7174
868 4.71589 20.4375 1.57131
2965 18.8592 22.021 15.712
870 7.86003 20.4375 1.57131
961 -0.000233166 25.1541 3.14341
872 11.0042 20.4375 1.57128
2893 18.8643 22.0118 12.5711
874 14.1485 20.4375 1.57121
2869 18.8653 34.5877 9.43167
876 17.2929 20.4375 1.5711
877 -0.000239239 22.0097 -0.000801552
878 1.5718 23.5819 1.5713
879 3.14384 22.0097 -0.000801552
880 4.71589 23.5819 1.5713
973 -0.000253978 28.2985 3.14342
882 7.86003 23.5819 1.5713
883 9.43213 22.0097 -0.000801552
884 11.0042 23.5819 1.57127
885 12.5764 22.0097 -0.000801552
886 14.1485 23.582 1.5712
887 15.7207 22.0098 -0.000801552
888 17.2929 23.5821 1.57111
889 -0.000244131 25.1541 -0.000801552
890 1.5718 26.7263 1.57131
985 -0.000282598 31.4429 3.14344
892 4.7159 26.7263 1.5713
949 -0.000227416 22.0097 3.14341
894 7.86005 26.7263 1.57129
895 9.43214 25.1541 -0.000801552
896 11.0043 26.7264 1.57126
897 12.5764 25.1542 -0.000801552
898 14.1486 26.7265 1.5712
899 15.7207 25.1543 -0.000801552
900 17.293 26.7266 1.57115
901 -0.000255731 28.2985 -0.000801552
902 1.57179 29.8707 1.57131
3001 18.8652 31.4449 15.7203
904 4.71591 29.8707 1.5713
3013 18.8653 34.5882 15.7206
906 7.86008 29.8708 1.57128
907 9.43217 28.2986 -0.000801552
908 11.0043 29.8708 1.57125
909 12.5764 28.2987 -0.000801552
910 14.1486 29.8709 1.57122
911 15.7208 28.2987 -0.000801552
912 17.293 29.871 1.5712
2725 18.8653 34.5874 3.14331
914 1.57177 33.0151 1.57132
1021 -0.000205874 22.0097 6.28768