ITEM: TIMESTEP
272
ITEM: NUMBER OF ATOMS
3457
ITEM: BOX BOUNDS pp pp pp
-3.5090625476301164e-04 3.7731002906254751e+01
-8.0262092620163805e-04 3.7731454620926229e+01
-8.0213512639929895e-04 3.7731454135126349e+01
ITEM: ATOMS id x y z
2319 22.0126 18.863 12.5686
2 1.57178 1.57137 1.57136
2317 18.8642 18.8633 12.5712
4 4.71602 1.57137 1.57135
713 25.1564 15.7185 12.5737
6 7.86028 1.57137 1.57134
7 9.43242 -0.000762125 -0.000802135
8 11.0046 1.57137 1.57132
707 15.7191 15.7186 12.5735
10 14.1489 1.57137 1.57132
11 15.721 -0.000741799 -0.000802135
12 17.2932 1.57137 1.57131
705 12.5756 15.7202 12.5755
14 20.4375 1.57137 1.57131
15 22.0096 -0.000737543 -0.000802135
16 23.5818 1.57137 1.57131
703 9.43175 15.7207 12.5762
18 26.7261 1.57137 1.57132
19 28.2982 -0.000750641 -0.000802135
20 29.8704 1.57137 1.57133
701 6.2878 15.7209 12.5764
22 33.0146 1.57137 1.57135
699 3.14377 15.7209 12.5765
24 36.1589 1.57137 1.57136
25 -0.000339994 3.14353 -0.000802135
26 1.57178 4.7157 1.57135
27 3.1439 3.14353 -0.000802135
28 4.71601 4.71569 1.57135
29 6.28815 3.14352 -0.000802135
30 7.86027 4.71566 1.57133
31 9.43242 3.14351 -0.000802135
32 11.0045 4.71564 1.57132
33 12.5767 3.1435 -0.000802135
34 14.1488 4.71562 1.57131
35 15.721 3.14349 -0.000802135
36 17.2932 4.71561 1.57131
37 18.8653 3.14349 -0.000802135
38 20.4375 4.7156 1.57131
39 22.0096 3.14349 -0.000802135
40 23.5818 4.71561 1.57131
41 25.1539 3.14349 -0.000802135
42 26.7261 4.71562 1.57132
43 28.2982 3.1435 -0.000802135
44 29.8704 4.71564 1.57133
45 31.4425 3.14351 -0.000802135
46 33.0147 4.71566 1.57134
47 34.5868 3.14353 -0.000802135
48 36.1589 4.71569 1.57135
49 -0.000330971 6.28786 -0.000802135
50 1.57178 7.86003 1.57135
51 3.14389 6.28786 -0.000802135
52 4.716 7.86002 1.57134
53 6.28813 6.28784 -0.000802135
54 7.86023 7.85998 1.57132
55 9.43239 6.2878 -0.000802135
56 11.0045 7.85993 1.5713
57 12.5767 6.28777 -0.000802135
58 14.1488 7.85989 1.57128
59 15.721 6.28775 -0.000802135
60 17.2931 7.85987 1.57128
61 18.8653 6.28773 -0.000802135
62 20.4375 7.85986 1.57127
63 22.0096 6.28773 -0.000802135
64 23.5818 7.85986 1.57128
65 25.154 6.28774 -0.000802135
66 26.7261 7.85988 1.57129
67 28.2983 6.28777 -0.000802135
68 29.8704 7.85992 1.57131
69 31.4425 6.2878 -0.000802135
70 33.0147 7.85997 1.57133
71 34.5868 6.28784 -0.000802135
72 36.1589 7.86001 1.57134
73 -0.000316745 9.4322 -0.000802135
74 1.57178 11.0044 1.57134
75 3.14388 9.4322 -0.000802135
76 4.71598 11.0044 1.57133
77 6.2881 9.43218 -0.000802135
78 7.86019 11.0043 1.57131
79 9.43234 9.43213 -0.000802135
80 11.0044 11.0043 1.57128
81 12.5766 9.43208 -0.000802135
82 14.1487 11.0042 1.57125
83 15.7209 9.43204 -0.000802135
84 17.2931 11.0042 1.57123
85 18.8653 9.43202 -0.000802135
86 20.4375 11.0042 1.57123
87 22.0096 9.43201 -0.000802134
88 23.5818 11.0042 1.57123
89 25.154 9.43202 -0.000802134
90 26.7262 11.0042 1.57125
91 28.2983 9.43206 -0.000802134
92 29.8705 11.0042 1.57128
93 31.4426 9.43211 -0.000802135
94 33.0147 11.0043 1.57131
95 34.5868 9.43217 -0.000802135
96 36.159 11.0044 1.57133
97 -0.000302562 12.5766 -0.000802135
98 1.57179 14.1487 1.57133
99 3.14388 12.5766 -0.000802135
100 4.71597 14.1487 1.57133
101 6.28808 12.5765 -0.000802135
102 7.86017 14.1487 1.57131
103 9.4323 12.5765 -0.000802135
104 11.0044 14.1487 1.57127
105 12.5766 12.5764 -0.000802135
106 14.1487 14.1486 1.57122
2181 31.4431 18.8652 9.43178
108 17.293 14.1486 1.57118
109 18.8653 12.5764 -0.000802134
110 20.4375 14.1485 1.57115
111 22.0097 12.5763 -0.000802134
112 23.5819 14.1485 1.57116
113 25.154 12.5764 -0.000802134
114 26.7263 14.1486 1.57119
115 28.2984 12.5764 -0.000802134
116 29.8706 14.1486 1.57126
2025 12.5764 18.8653 6.28741
118 33.0148 14.1487 1.5713
119 34.5869 12.5765 -0.000802135
120 36.159 14.1487 1.57133
121 -0.000293732 15.7209 -0.000802135
122 1.57179 17.2931 1.57133
123 3.14387 15.7209 -0.000802135
124 4.71596 17.2931 1.57133
125 6.28806 15.7209 -0.000802135
126 7.86015 17.2931 1.57131
127 9.43228 15.7209 -0.000802135
128 11.0044 17.2931 1.57128
1895 34.5869 18.8653 3.14342
130 14.1486 17.2931 1.57122
131 15.7208 15.7208 -0.000802134
132 17.293 17.293 1.57114
1891 28.2986 18.8652 3.14318
134 20.4374 17.293 1.57109
1887 22.0097 18.8652 3.14288
136 23.5819 17.293 1.5711
137 25.1541 15.7208 -0.000802134
138 26.7263 17.293 1.57116
139 28.2984 15.7208 -0.000802134
140 29.8706 17.293 1.57124
141 31.4427 15.7209 -0.000802134
142 33.0148 17.2931 1.57129
143 34.5869 15.7209 -0.000802135
144 36.159 17.2931 1.57132
695 34.587 12.5764 12.5765
146 1.57177 1.57137 4.71568
693 31.443 12.5763 12.5764
148 4.716 1.57137 4.71566
149 6.28813 -0.000770397 3.14349
150 7.86025 1.57137 4.71562
691 28.299 12.5759 12.5761
152 11.0045 1.57137 4.71559
153 12.5767 -0.000744632 3.14344
154 14.1488 1.57137 4.71557
689 25.155 12.575 12.5754
156 17.2932 1.57137 4.71556
157 18.8653 -0.000734681 3.14343
158 20.4375 1.57137 4.71556
159 22.0096 -0.000733466 3.14343
160 23.5818 1.57137 4.71557
685 18.8652 12.5746 12.575
162 26.7261 1.57137 4.71559
163 28.2982 -0.000745017 3.14346
164 29.8704 1.57137 4.71563
681 12.5754 12.5753 12.5754
166 33.0147 1.57137 4.71566
167 34.5868 -0.00077258 3.14351
168 36.1589 1.57137 4.71568
169 -0.000340434 3.14353 3.14352
170 1.57177 4.71568 4.71567
171 3.14389 3.14353 3.14351
172 4.71599 4.71567 4.71565
173 6.28813 3.14352 3.14349
174 7.86023 4.71564 4.71561
175 9.4324 3.14351 3.14346
176 11.0045 4.71561 4.71556
177 12.5767 3.14349 3.14344
178 14.1488 4.71558 4.71553
179 15.721 3.14349 3.14343
180 17.2931 4.71557 4.71553
181 18.8653 3.14348 3.14343
182 20.4375 4.71557 4.71553
183 22.0096 3.14348 3.14343
184 23.5818 4.71557 4.71554
185 25.1539 3.14349 3.14344
186 26.7261 4.71558 4.71557
187 28.2982 3.14349 3.14346
188 29.8704 4.71561 4.71561
189 31.4425 3.14351 3.14349
190 33.0147 4.71565 4.71565
191 34.5868 3.14352 3.14351
192 36.1589 4.71568 4.71567
193 -0.000331111 6.28785 3.14351
194 1.57177 7.86001 4.71565
195 3.14388 6.28785 3.1435
196 4.71597 7.85999 4.71562
197 6.28811 6.28782 3.14347
198 7.86018 7.85994 4.71557
199 9.43237 6.28778 3.14344
200 11.0044 7.85988 4.7155
201 12.5767 6.28775 3.14341
202 14.1488 7.85983 4.71546
203 15.721 6.28772 3.14339
204 17.2931 7.85979 4.71544
205 18.8653 6.28771 3.14339
206 20.4375 7.85977 4.71544
207 22.0096 6.2877 3.14339
208 23.5819 7.85978 4.71546
209 25.154 6.28771 3.14341
210 26.7262 7.85981 4.7155
211 28.2983 6.28774 3.14343
212 29.8705 7.85987 4.71556
213 31.4426 6.28778 3.14347
214 33.0147 7.85994 4.71561
215 34.5868 6.28783 3.14349
216 36.1589 7.85999 4.71565
217 -0.000315529 9.43219 3.14349
218 1.57178 11.0044 4.71563
219 3.14388 9.43219 3.14348
220 4.71595 11.0044 4.7156
221 6.28808 9.43216 3.14345
222 7.86013 11.0043 4.71554
223 9.43231 9.43211 3.1434
224 11.0044 11.0042 4.71543
225 12.5766 9.43205 3.14335
226 14.1487 11.0041 4.71534
227 15.7209 9.432 3.14332
228 17.293 11.0041 4.71528
229 18.8653 9.43197 3.14331
230 20.4375 11.004 4.71526
231 22.0097 9.43196 3.14331
232 23.5819 11.004 4.71528
233 25.154 9.43197 3.14334
234 26.7263 11.0041 4.71536
235 28.2984 9.43202 3.14338
236 29.8706 11.0042 4.71546
237 31.4426 9.43209 3.14343
238 33.0148 11.0043 4.71557
239 34.5868 9.43215 3.14347
240 36.159 11.0043 4.71562
241 -0.000299696 12.5765 3.14347
242 1.57179 14.1487 4.71562
243 3.14387 12.5766 3.14347
244 4.71594 14.1487 4.71559
245 6.28805 12.5765 3.14344
246 7.86011 14.1487 4.71553
247 9.43227 12.5765 3.14338
248 11.0043 14.1486 4.71541
249 12.5765 12.5764 3.1433
250 14.1486 14.1485 4.71523
251 15.7208 12.5763 3.14323
252 17.293 14.1484 4.71509
253 18.8652 12.5763 3.14319
254 20.4375 14.1484 4.71503
255 22.0097 12.5763 3.14318
256 23.582 14.1484 4.71504
257 25.1541 12.5763 3.14321
258 26.7264 14.1484 4.71517
259 28.2985 12.5763 3.14329
260 29.8707 14.1485 4.71538
261 31.4427 12.5764 3.14339
262 33.0149 14.1486 4.71553
263 34.5869 12.5765 3.14345
264 36.159 14.1487 4.7156
265 -0.000289178 15.7209 3.14346
266 1.57179 17.2931 4.71561
267 3.14387 15.7209 3.14346
268 4.71594 17.2931 4.71559
269 6.28804 15.7209 3.14344
270 7.86011 17.2931 4.71554
271 9.43224 15.7209 3.14339
272 11.0043 17.2931 4.71543
273 12.5765 15.7208 3.14329
274 14.1486 17.293 4.71523
275 15.7208 15.7208 3.14315
276 17.2929 17.2929 4.71494
277 18.8652 15.7207 3.14305
278 20.4375 17.2929 4.71477
279 22.0097 15.7207 3.14302
280 23.5821 17.2929 4.71477
281 25.1542 15.7207 3.14307
282 26.7265 17.2929 4.71504
283 28.2985 15.7208 3.14322
284 29.8708 17.293 4.71532
285 31.4427 15.7208 3.14336
286 33.0149 17.2931 4.71551
287 34.5869 15.7209 3.14343
288 36.159 17.2931 4.71558
667 28.2987 9.43173 12.5763
290 1.57175 1.57137 7.86002
665 25.1545 9.43131 12.576
292 4.71596 1.57137 7.85999
293 6.28809 -0.000757684 6.28779
294 7.86019 1.57137 7.85993
1885 18.8652 18.8652 3.14296
296 11.0045 1.57137 7.85988
297 12.5767 -0.000719955 6.2877
298 14.1488 1.57137 7.85985
657 12.576 9.43126 12.5759
300 17.2932 1.57137 7.85983
2023 9.43215 18.8653 6.28762
302 20.4375 1.57137 7.85984
1881 12.5765 18.8653 3.1433
304 23.5818 1.57137 7.85986
305 25.154 -0.000710606 6.28772
306 26.7262 1.57137 7.8599
641 25.1542 6.28741 12.5763
308 29.8705 1.57137 7.85995
309 31.4426 -0.000745208 6.2878
310 33.0147 1.57137 7.86
311 34.5868 -0.000764443 6.28784
312 36.1589 1.57137 7.86003
313 -0.000342489 3.14352 6.28785
314 1.57175 4.71567 7.86001
315 3.14387 3.14352 6.28784
316 4.71595 4.71565 7.85997
317 6.28809 3.14351 6.28779
318 7.86016 4.71561 7.85991
319 9.43235 3.14349 6.28774
320 11.0044 4.71555 7.85984
321 12.5767 3.14347 6.2877
322 14.1488 4.71551 7.8598
323 15.721 3.14346 6.28768
324 17.2931 4.71549 7.85978
325 18.8653 3.14345 6.28768
326 20.4375 4.71549 7.85979
327 22.0097 3.14345 6.28769
328 23.5819 4.7155 7.85982
329 25.154 3.14346 6.28772
330 26.7262 4.71553 7.85987
331 28.2983 3.14347 6.28776
332 29.8705 4.71558 7.85993
333 31.4426 3.14349 6.2878
334 33.0147 4.71563 7.85999
335 34.5868 3.14351 6.28784
336 36.1589 4.71566 7.86002
337 -0.000333719 6.28783 6.28783
338 1.57175 7.85998 7.85999
339 3.14386 6.28783 6.28782
340 4.71591 7.85995 7.85994
341 6.28806 6.28779 6.28776
342 7.86009 7.85987 7.85984
343 9.4323 6.28773 6.28769
344 11.0043 7.85976 7.85973
345 12.5766 6.28768 6.28764
346 14.1487 7.85966 7.85965
347 15.7209 6.28763 6.2876
348 17.2931 7.8596 7.85961
349 18.8653 6.28761 6.2876
350 20.4375 7.85958 7.85961
351 22.0097 6.28761 6.28761
352 23.5819 7.85962 7.85966
353 25.154 6.28764 6.28765
354 26.7263 7.85968 7.85975
355 28.2984 6.28768 6.2877
356 29.8706 7.85979 7.85985
357 31.4426 6.28774 6.28777
358 33.0148 7.8599 7.85994
359 34.5868 6.2878 6.28782
360 36.1589 7.85997 7.85999
361 -0.00031295 9.43216 6.28781
362 1.57176 11.0043 7.85996
363 3.14385 9.43217 6.28779
364 4.71589 11.0043 7.85991
365 6.28801 9.43212 6.28772
366 7.86001 11.0042 7.85978
367 9.43221 9.43203 6.28761
368 11.0042 11.004 7.85957
369 12.5765 9.43192 6.28751
370 14.1485 11.0039 7.8594
371 15.7208 9.43184 6.28744
372 17.293 11.0037 7.85931
373 18.8653 9.43179 6.28741
374 20.4375 11.0037 7.85928
375 22.0097 9.43179 6.28742
376 23.5821 11.0038 7.85935
377 25.1541 9.43183 6.28748
378 26.7265 11.0039 7.85949
379 28.2985 9.4319 6.28758
380 29.8708 11.004 7.85971
381 31.4427 9.43202 6.2877
382 33.0149 11.0042 7.85988
383 34.5869 9.43211 6.28778
384 36.159 11.0043 7.85995
385 -0.000289357 12.5765 6.28778
386 1.57178 14.1487 7.85994
387 3.14385 12.5765 6.28777
388 4.71589 14.1487 7.8599
389 6.28799 12.5765 6.28771
390 7.86 14.1487 7.85979
391 9.43215 12.5764 6.28758
392 11.0041 14.1485 7.85956
393 12.5764 12.5763 6.28736
394 14.1483 14.1482 7.85913
395 15.7207 12.5761 6.28721
396 17.2929 14.148 7.8589
397 18.8652 12.576 6.28712
398 20.4375 14.148 7.85877
399 22.0098 12.576 6.28711
400 23.5822 14.148 7.85882
401 25.1543 12.5761 6.2872
402 26.7268 14.1481 7.85908
403 28.2986 12.5762 6.28739
404 29.8709 14.1484 7.85955
405 31.4428 12.5764 6.28761
406 33.015 14.1486 7.85982
407 34.5869 12.5765 6.28774
408 36.159 14.1487 7.85993
409 -0.000269036 15.7209 6.28776
410 1.57179 17.2931 7.85993
411 3.14385 15.7209 6.28776
412 4.7159 17.2931 7.8599
413 6.28799 15.7209 6.28771
414 7.86002 17.2931 7.85981
415 9.43214 15.7209 6.28759
416 11.0042 17.293 7.85962
417 12.5763 15.7208 6.28737
418 14.1484 17.2929 7.85922
419 15.7206 15.7206 6.287
420 17.2927 17.2926 7.85851
421 18.8652 15.7205 6.28677
422 20.4375 17.2925 7.8581
423 22.0098 15.7204 6.28668
424 23.5825 17.2925 7.85811
425 25.1545 15.7205 6.28682
426 26.7269 17.2927 7.85886
427 28.2988 15.7206 6.28723
428 29.871 17.2929 7.85946
429 31.4429 15.7208 6.28755
430 33.015 17.293 7.85977
431 34.587 15.7209 6.28771
432 36.1591 17.2931 7.85991
433 -0.000346429 -0.000764717 9.4322
434 1.57174 1.57137 11.0044
435 3.14384 -0.000761417 9.43218
436 4.71593 1.57137 11.0043
2029 18.8651 18.8651 6.28648
438 7.86014 1.57137 11.0043
439 9.43228 -0.00071123 9.43206
440 11.0044 1.57137 11.0042
633 12.5764 6.28735 12.5762
442 14.1487 1.57137 11.0042
443 15.7209 -0.000660107 9.43198
444 17.2931 1.57137 11.0042
445 18.8653 -0.00065405 9.43198
446 20.4375 1.57137 11.0042
447 22.0097 -0.000661905 9.432
448 23.5819 1.57137 11.0042
2183 34.5871 18.8653 9.43203
450 26.7262 1.57137 11.0043
451 28.2984 -0.000705226 9.4321
452 29.8705 1.57137 11.0043
2179 28.2992 18.8651 9.43119
454 33.0147 1.57137 11.0044
2175 22.0104 18.8647 9.42875
456 36.1589 1.57137 11.0044
457 -0.000346429 3.14351 9.4322
458 1.57174 4.71565 11.0044
459 3.14384 3.14351 9.43218
460 4.7159 4.71563 11.0043
461 6.28804 3.14349 9.43213
462 7.8601 4.71556 11.0043
463 9.43228 3.14346 9.43206
464 11.0043 4.71546 11.0042
465 12.5766 3.14343 9.43201
466 14.1487 4.71539 11.0041
467 15.7209 3.14341 9.43198
468 17.2931 4.71536 11.0041
469 18.8653 3.1434 9.43198
470 20.4375 4.71536 11.0041
471 22.0097 3.14341 9.432
472 23.5819 4.71541 11.0042
473 25.1541 3.14343 9.43204
474 26.7263 4.71547 11.0042
475 28.2984 3.14345 9.4321
476 29.8705 4.71556 11.0043
477 31.4426 3.14349 9.43216
478 33.0147 4.71562 11.0044
479 34.5868 3.14351 9.43219
480 36.1589 4.71565 11.0044
481 -0.000340275 6.28781 9.43219
482 1.57173 7.85996 11.0043
483 3.14382 6.2878 9.43216
484 4.71585 7.85992 11.0043
485 6.28799 6.28775 9.43209
486 7.85998 7.85979 11.0042
487 9.43219 6.28764 9.43198
488 11.0041 7.85957 11.004
489 12.5765 6.28754 9.4319
490 14.1485 7.85938 11.0039
491 15.7209 6.28746 9.43185
492 17.293 7.85929 11.0039
493 18.8653 6.28744 9.43184
494 20.4376 7.8593 11.0039
495 22.0097 6.28746 9.43187
496 23.5821 7.85939 11.0039
497 25.1541 6.28752 9.43194
498 26.7264 7.85954 11.0041
499 28.2984 6.2876 9.43203
500 29.8706 7.85975 11.0042
501 31.4427 6.28771 9.43213
502 33.0148 7.85988 11.0043
503 34.5868 6.28778 9.43217
504 36.1589 7.85995 11.0044
505 -0.000323332 9.43214 9.43216
506 1.57173 11.0043 11.0043
507 3.1438 9.43213 9.43213
508 4.7158 11.0043 11.0043
509 6.28791 9.43206 9.43203
510 7.85983 11.0041 11.0041
511 9.43204 9.43189 9.43186
512 11.0039 11.0037 11.0038
513 12.5763 9.43167 9.43168
514 14.1482 11.0034 11.0035
515 15.7207 9.43152 9.43158
516 17.2929 11.0032 11.0034
517 18.8653 9.43146 9.43154
518 20.4376 11.0032 11.0034
519 22.0098 9.43149 9.43157
520 23.5823 11.0033 11.0035
521 25.1543 9.43158 9.43169
522 26.7268 11.0035 11.0037
523 28.2986 9.43175 9.43187
524 29.8709 11.004 11.0041
525 31.4428 9.43196 9.43205
526 33.0149 11.0042 11.0043
527 34.5869 9.43208 9.43214
528 36.159 11.0043 11.0043
529 -0.000291101 12.5765 9.43213
530 1.57175 14.1487 11.0043
531 3.1438 12.5765 9.43211
532 4.71581 14.1487 11.0042
533 6.28788 12.5765 9.43201
534 7.85982 14.1486 11.0041
535 9.43193 12.5763 9.43179
536 11.0038 14.1483 11.0037
537 12.576 12.5759 9.43137
538 14.1477 14.1475 11.0028
539 15.7205 12.5757 9.43113
540 17.2926 14.1472 11.0026
541 18.8652 12.5755 9.43103
542 20.4376 14.1472 11.0024
543 22.0099 12.5756 9.43102
544 23.5827 14.1472 11.0025
545 25.1546 12.5757 9.43119
546 26.7273 14.1476 11.0031
547 28.2989 12.5759 9.43156
548 29.8712 14.1483 11.0039
549 31.443 12.5763 9.43193
550 33.0151 14.1486 11.0042
551 34.587 12.5764 9.43209
552 36.1591 14.1487 11.0043
553 -0.000260185 15.7209 9.43212
554 1.57178 17.2931 11.0043
555 3.14382 15.7209 9.4321
556 4.71585 17.2931 11.0043
557 6.2879 15.7209 9.43203
558 7.85992 17.2931 11.0042
559 9.43199 15.7208 9.43185
560 11.004 17.293 11.0039
561 12.5761 15.7206 9.43144
562 14.1481 17.2927 11.0032
563 15.7203 15.7201 9.43059
564 17.2922 17.2918 11.0015
565 18.8651 15.7199 9.43025
566 20.4376 17.2917 11.0008
567 22.0101 15.7199 9.43008
568 23.5836 17.2914 11.0006
569 25.1551 15.7199 9.43034
570 26.7276 17.2924 11.0027
571 28.2992 15.7204 9.43131
572 29.8713 17.2928 11.0037
573 31.4431 15.7207 9.43183
574 33.0151 17.293 11.0041
575 34.5871 15.7208 9.43205
576 36.1591 17.2931 11.0043
2173 18.865 18.8648 9.42944
1731 3.14387 18.8653 -0.000802135
2167 9.43205 18.8653 9.4319
2165 6.28794 18.8653 9.43205
2031 22.0099 18.8651 6.28626
2163 3.14384 18.8653 9.4321
1741 18.8652 18.8653 -0.000802134
1743 22.0097 18.8652 -0.000802134
2161 -0.00024323 18.8653 9.43211
1747 28.2985 18.8653 -0.000802134
2035 28.2988 18.8652 6.28716
1751 34.5869 18.8653 -0.000802134
1873 -0.000285855 18.8653 3.14346
1875 3.14387 18.8653 3.14346
581 6.288 -0.00072836 12.5765
585 12.5765 -0.000620748 12.5764
593 25.1541 -0.00064479 12.5764
599 34.5868 -0.000754416 12.5766
605 6.288 3.14348 12.5765
609 12.5765 3.14337 12.5764
617 25.1541 3.14339 12.5764
623 34.5868 3.1435 12.5766
625 -0.000348813 6.28779 12.5766
627 3.14379 6.28777 12.5765
629 6.28793 6.28771 12.5765
647 34.5869 6.28777 12.5766
673 -0.000312231 12.5765 12.5765
675 3.14374 12.5765 12.5765
677 6.28774 12.5764 12.5764
679 9.43162 12.576 12.5761
683 15.7201 12.5747 12.5751
687 22.0102 12.5748 12.575
697 -0.000270568 15.7209 12.5765
709 18.8649 15.7184 12.5735
711 22.0107 15.7186 12.5732
715 28.2996 15.7202 12.5756
717 31.4432 15.7207 12.5763
719 34.5871 15.7208 12.5765
2017 -0.000258744 18.8653 6.28775
2019 3.14385 18.8653 6.28775
2021 6.288 18.8653 6.28772
1893 31.4428 18.8653 3.14334
2027 15.7206 18.8652 6.28703
1883 15.7208 18.8653 3.14315
1879 9.43224 18.8653 3.1434
1877 6.28804 18.8653 3.14344
2039 34.587 18.8653 6.28769
1749 31.4427 18.8653 -0.000802134
1889 25.1542 18.8652 3.143
1735 9.43226 18.8653 -0.000802135
2033 25.1545 18.8651 6.28665
2037 31.4429 18.8653 6.28751
2169 12.5762 18.8652 9.43157
2177 25.1552 18.8649 9.43006
2171 15.7205 18.8651 9.43088
1733 6.28805 18.8653 -0.000802135
1729 -0.0002885 18.8653 -0.000802135
2321 25.1563 18.8645 12.5735
2313 12.5761 18.8652 12.5759
449 25.1541 -0.000678529 9.43204
441 12.5766 -0.000678543 9.43201
437 6.28804 -0.000741738 9.43213
307 28.2983 -0.000725437 6.28776
303 22.0097 -0.000703531 6.28769
301 18.8653 -0.000702323 6.28768
299 15.721 -0.000707131 6.28768
295 9.43235 -0.000738269 6.28774
291 3.14387 -0.000771004 6.28784
289 -0.000342489 -0.00077329 6.28785
165 31.4425 -0.00075842 3.14349
161 25.1539 -0.000736211 3.14344
155 15.721 -0.000737455 3.14343
151 9.4324 -0.0007568 3.14346
147 3.14389 -0.000780271 3.14351
145 -0.000340434 -0.000780944 3.14352
23 34.5868 -0.000776112 -0.000802135
21 31.4425 -0.000763452 -0.000802135
17 25.1539 -0.000742578 -0.000802135
13 18.8653 -0.00073669 -0.000802135
9 12.5767 -0.000750226 -0.000802135
2315 15.7203 18.865 12.5749
5 6.28815 -0.000775152 -0.000802135
3 3.1439 -0.000783739 -0.000802135
453 31.4426 -0.000735993 9.43216
2325 31.4432 18.8652 12.5762
2323 28.2996 18.865 12.5755
1 -0.000339994 -0.000784471 -0.000802135
455 34.5868 -0.000757525 9.43219
601 -0.000349572 3.14351 12.5766
597 31.4426 -0.000732719 12.5765
603 3.14382 3.1435 12.5766
607 9.43222 3.14343 12.5764
611 15.7209 3.14334 12.5763
613 18.8653 3.14333 12.5764
615 22.0098 3.14335 12.5764
619 28.2984 3.14345 12.5765
621 31.4426 3.14348 12.5765
595 28.2984 -0.000698268 12.5765
589 18.8653 -0.000582385 12.5764
631 9.43209 6.28755 12.5764
2305 -0.000243529 18.8653 12.5765
2307 3.14381 18.8653 12.5765
587 15.7209 -0.000588154 12.5763
583 9.43222 -0.000684008 12.5764
579 3.14382 -0.000753651 12.5766
577 -0.000349572 -0.000758183 12.5766
591 22.0098 -0.000605431 12.5764
635 15.7208 6.28722 12.5762
639 22.0098 6.28727 12.5762
2311 9.43196 18.8653 12.5763
2327 34.5871 18.8653 12.5765
2309 6.28788 18.8653 12.5764
637 18.8653 6.2872 12.5762
643 28.2985 6.28759 12.5765
655 9.43187 9.43173 12.5762
661 18.8653 9.43094 12.5758
645 31.4427 6.28771 12.5765
649 -0.000338137 9.43212 12.5765
651 3.14376 9.4321 12.5765
653 6.28782 9.43199 12.5764
659 15.7206 9.431 12.5758
663 22.0099 9.43107 12.5759
669 31.4428 9.43196 12.5765
671 34.5869 9.43208 12.5765
107 15.7209 12.5764 -0.000802134
117 31.4427 12.5765 -0.000802134
129 12.5765 15.7209 -0.000802135
133 18.8652 15.7208 -0.000802134
135 22.0097 15.7208 -0.000802134
1737 12.5765 18.8653 -0.000802135
1739 15.7208 18.8653 -0.000802134
1745 25.1541 18.8652 -0.000802134
2759 34.587 18.8653 22.0097
578 1.57173 1.57137 14.1488
2757 31.4431 18.8653 22.0098
580 4.7159 1.57137 14.1487
2755 28.2995 18.8651 22.0102
582 7.8601 1.57137 14.1487
2753 25.1578 18.8642 22.0124
584 11.0044 1.57137 14.1486
2615 34.587 18.8653 18.8653
586 14.1487 1.57137 14.1486
2613 31.4428 18.8653 18.8653
588 17.2931 1.57137 14.1486
2611 28.2985 18.8652 18.8653
590 20.4376 1.57137 14.1486
1152 36.1591 17.2931 23.5819
592 23.582 1.57137 14.1486
2603 15.7184 18.8612 18.8653
594 26.7263 1.57137 14.1487
2593 -0.000304257 18.8653 18.8653
596 29.8705 1.57137 14.1487
2471 34.587 18.8653 15.7209
598 33.0147 1.57137 14.1488
2469 31.4431 18.8653 15.7208
600 36.1589 1.57137 14.1488
725 6.28797 -0.00071868 15.7209
602 1.57173 4.71564 14.1487
737 25.1541 -0.00064256 15.7209
604 4.71587 4.71561 14.1487
2467 28.2995 18.8651 15.7204
606 7.86005 4.71553 14.1487
739 28.2984 -0.000703462 15.7209
608 11.0043 4.7154 14.1486
2465 25.1578 18.8642 15.7182
610 14.1486 4.71525 14.1485
743 34.5868 -0.000753377 15.7209
612 17.2931 4.71519 14.1485
869 6.28796 -0.000714953 18.8653
614 20.4376 4.71523 14.1485
873 12.5765 -0.000570598 18.8653
616 23.582 4.71533 14.1486
875 15.7209 -0.000494962 18.8653
618 26.7263 4.71547 14.1487
883 28.2984 -0.000705546 18.8653
620 29.8705 4.71557 14.1487
887 34.5868 -0.000752968 18.8653
622 33.0148 4.71562 14.1487
1013 6.28797 -0.00071868 22.0097
624 36.1589 4.71564 14.1488
1025 25.1541 -0.00064256 22.0098
626 1.57171 7.85994 14.1487
1027 28.2984 -0.000703462 22.0097
628 4.71581 7.85989 14.1487
1031 34.5868 -0.000753377 22.0097
630 7.85989 7.85972 14.1486
729 12.5765 -0.000584468 15.7208
632 11.004 7.85941 14.1485
2751 22.0257 18.8507 22.0296
634 14.1483 7.859 14.1483
1017 12.5765 -0.000584468 22.0098
636 17.293 7.85886 14.1482
2749 18.8591 18.8539 22.0186
638 20.4376 7.85895 14.1483
1141 18.8649 15.7145 22.0131
640 23.5822 7.85918 14.1484
2747 15.7191 18.8643 22.0117
642 26.7265 7.85955 14.1486
2745 12.5759 18.8652 22.0102
644 29.8707 7.85977 14.1487
1140 17.29 17.2885 23.588
646 33.0148 7.85989 14.1487
1139 15.7151 15.7138 22.0154
648 36.1589 7.85994 14.1487
1138 14.1473 17.292 23.5834
650 1.5717 11.0043 14.1487
1137 12.5744 15.7193 22.0108
652 4.71573 11.0042 14.1487
1136 11.0037 17.2929 23.5824
654 7.8597 11.004 14.1485
2743 9.43194 18.8653 22.0099
656 11.0036 11.0035 14.1482
2741 6.28786 18.8653 22.0098
658 14.1477 11.0025 14.1477
1135 9.43145 15.7205 22.01
660 17.2927 11.0023 14.1477
2739 3.14378 18.8653 22.0097
662 20.4377 11.0024 14.1477
1134 7.85982 17.293 23.5821
664 23.5825 11.0028 14.1479
2737 -0.000283117 18.8653 22.0097
666 26.7267 11.0036 14.1484
2609 25.1536 18.8652 18.8653
668 29.8708 11.004 14.1486
1133 6.28769 15.7208 22.0098
670 33.0149 11.0042 14.1487
1132 4.7158 17.2931 23.582
672 36.159 11.0043 14.1487
1131 3.14373 15.7209 22.0097
674 1.57171 14.1487 14.1487
1130 1.57175 17.2931 23.5819
676 4.71572 14.1487 14.1487
1129 -0.000311842 15.7209 22.0097
678 7.85961 14.1485 14.1485
1128 36.159 14.1487 23.5819
680 11.0032 14.1478 14.148
2607 22.0082 18.8623 18.8653
682 14.1463 14.1459 14.1463
1127 34.5869 12.5764 22.0097
684 17.2921 14.1454 14.1464
2605 18.8253 18.7471 18.8653
686 20.4379 14.1457 14.1462
1126 33.015 14.1486 23.582
688 23.5836 14.1457 14.1464
2601 12.5759 18.865 18.8653
690 26.7272 14.1477 14.148
2599 9.43193 18.8653 18.8653
692 29.871 14.1484 14.1485
2597 6.28785 18.8653 18.8653
694 33.015 14.1486 14.1487
2595 3.14377 18.8653 18.8653
696 36.159 14.1487 14.1487
1125 31.4429 12.5763 22.0098
698 1.57175 17.2931 14.1487
2463 22.0257 18.8507 15.701
700 4.7158 17.2931 14.1487
2461 18.8591 18.8539 15.712
702 7.85982 17.293 14.1486
2459 15.7191 18.8643 15.719
704 11.0037 17.2929 14.1483
2457 12.5759 18.8652 15.7205
706 14.1473 17.292 14.1473
2455 9.43194 18.8653 15.7208
708 17.29 17.2885 14.1427
1124 29.871 14.1484 23.5821
710 20.4379 17.2897 14.1423
2449 -0.000283117 18.8653 15.7209
712 23.5877 17.2874 14.1417
2453 6.28786 18.8653 15.7209
714 26.7284 17.292 14.1471
2451 3.14378 18.8653 15.7209
716 29.8713 17.2928 14.1483
1123 28.2988 12.5761 22.0099
718 33.0151 17.293 14.1486
1148 29.8713 17.2928 23.5823
720 36.1591 17.2931 14.1487
721 -0.000350314 -0.000753202 15.7209
722 1.57173 1.57137 17.2931
723 3.14381 -0.000750256 15.7209
724 4.71589 1.57137 17.2931
1147 28.2991 15.7205 22.01
726 7.86007 1.57137 17.2931
727 9.43218 -0.000667748 15.7209
728 11.0043 1.57137 17.2931
1151 34.587 15.7209 22.0097
730 14.1487 1.57137 17.2931
731 15.7209 -0.000522837 15.7208
732 17.2931 1.57137 17.2931
733 18.8653 -0.000516248 15.7208
734 20.4376 1.57137 17.2931
735 22.0098 -0.000568452 15.7208
736 23.582 1.57137 17.2931
1146 26.7284 17.292 23.5835
738 26.7263 1.57137 17.2931
1145 25.1555 15.7195 22.0108
740 29.8705 1.57137 17.2931
741 31.4426 -0.000734631 15.7209
742 33.0147 1.57137 17.2931
1144 23.5877 17.2874 23.589
744 36.1589 1.57137 17.2931
745 -0.000350314 3.1435 15.7209
746 1.57172 4.71563 17.2931
747 3.14381 3.1435 15.7209
748 4.71586 4.7156 17.2931
749 6.28797 3.14347 15.7209
750 7.86002 4.71551 17.2931
751 9.43218 3.14342 15.7209
752 11.0042 4.71536 17.2931
753 12.5765 3.14333 15.7208
754 14.1486 4.71517 17.293
755 15.7209 3.14327 15.7208
756 17.2931 4.71506 17.293
757 18.8653 3.14327 15.7208
758 20.4376 4.71513 17.293
759 22.0098 3.14332 15.7208
760 23.582 4.71532 17.2931
761 25.1541 3.14339 15.7209
762 26.7263 4.71548 17.2931
763 28.2984 3.14345 15.7209
764 29.8706 4.71557 17.2931
765 31.4426 3.14348 15.7209
766 33.0148 4.71562 17.2931
767 34.5868 3.1435 15.7209
768 36.1589 4.71564 17.2931
769 37.731 6.28779 15.7209
770 1.5717 7.85993 17.2931
771 3.14378 6.28776 15.7209
772 4.71579 7.85987 17.2931
773 6.28789 6.28768 15.7209
774 7.85985 7.85969 17.2931
775 9.43203 6.2875 15.7208
776 11.004 7.85934 17.293
777 12.5763 6.28722 15.7207
778 14.1482 7.85882 17.293
779 15.7207 6.28695 15.7207
780 17.2929 7.85844 17.2929
781 18.8653 6.28694 15.7207
782 20.4376 7.85866 17.2929
783 22.0099 6.28712 15.7207
784 23.5821 7.85921 17.293
785 25.1542 6.28741 15.7208
786 26.7264 7.85959 17.2931
787 28.2985 6.28761 15.7209
788 29.8706 7.85979 17.2931
789 31.4427 6.28772 15.7209
790 33.0148 7.8599 17.2931
791 34.5869 6.28777 15.7209
792 36.1589 7.85993 17.2931
793 37.731 9.4321 15.7209
794 1.57168 11.0043 17.2931
795 3.14373 9.43208 15.7209
796 4.7157 11.0042 17.2931
797 6.28776 9.43195 15.7209
798 7.85966 11.004 17.2931
799 9.43178 9.43164 15.7208
800 11.0036 11.0034 17.2929
801 12.5759 9.43104 15.7205
802 14.1476 11.0022 17.2927
803 15.7203 9.43029 15.7203
804 17.2924 11.0009 17.2925
805 18.8653 9.43028 15.7203
806 20.4378 11.0016 17.2926
807 22.01 9.43068 15.7204
808 23.5823 11.0031 17.2929
809 25.1544 9.43139 15.7207
810 26.7266 11.0037 17.293
811 28.2986 9.4318 15.7208
812 29.8707 11.0041 17.2931
813 31.4428 9.43199 15.7209
814 33.0149 11.0042 17.2931
815 34.5869 9.43208 15.7209
816 36.159 11.0043 17.2931
817 -0.000341642 12.5765 15.7209
818 1.57168 14.1487 17.2931
819 3.1437 12.5765 15.7209
820 4.71568 14.1486 17.2931
821 6.28766 12.5763 15.7208
822 7.85955 14.1484 17.293
823 9.4315 12.5759 15.7207
824 11.0032 14.1476 17.2929
825 12.5752 12.5749 15.7202
826 14.1465 14.1457 17.2923
827 15.7191 12.5728 15.7192
828 17.2902 14.1408 17.2908
829 18.8651 12.573 15.7195
830 20.4386 14.1434 17.2911
831 22.0105 12.5737 15.7196
832 23.5825 14.1471 17.2928
833 25.1547 12.5754 15.7205
834 26.7267 14.148 17.293
835 28.2988 12.5761 15.7208
836 29.8708 14.1484 17.2931
837 31.4429 12.5763 15.7209
838 33.0149 14.1486 17.2931
839 34.5869 12.5764 15.7209
840 36.159 14.1487 17.2931
841 -0.000311843 15.7209 15.7209
842 1.57172 17.2931 17.2931
843 3.14373 15.7209 15.7209
844 4.71576 17.2931 17.2931
845 6.28769 15.7208 15.7208
846 7.85973 17.293 17.2931
847 9.43145 15.7205 15.7207
848 11.0033 17.2926 17.293
849 12.5744 15.7193 15.7198
850 14.145 17.2904 17.292
851 15.7151 15.7138 15.7152
852 17.2771 17.2732 17.2786
853 18.8649 15.7145 15.7175
854 20.4437 17.2842 17.2818
855 22.0128 15.7148 15.7163
856 23.5837 17.2912 17.2921
857 25.1555 15.7195 15.7199
858 26.7269 17.2927 17.293
859 28.2991 15.7205 15.7207
860 29.8709 17.2929 17.2931
861 31.443 15.7208 15.7209
862 33.0149 17.293 17.2931
863 34.587 15.7209 15.7209
864 36.159 17.2931 17.2931
865 -0.000350564 -0.000750942 18.8653
866 1.57173 1.57137 20.4375
867 3.1438 -0.000750342 18.8653
868 4.71589 1.57137 20.4375
1143 22.0128 15.7148 22.0143
870 7.86007 1.57137 20.4375
871 9.43217 -0.000661123 18.8653
872 11.0043 1.57137 20.4376
1142 20.4379 17.2897 23.5883
874 14.1487 1.57137 20.4376
1150 33.0151 17.293 23.582
876 17.2931 1.57137 20.4376
877 18.8653 -0.00047716 18.8653
878 20.4376 1.57137 20.4376
879 22.0098 -0.000557893 18.8653
880 23.582 1.57137 20.4376
881 25.1542 -0.000643201 18.8653
882 26.7263 1.57137 20.4375
1122 26.7272 14.1477 23.5827
884 29.8705 1.57137 20.4375
885 31.4426 -0.000735832 18.8653
886 33.0147 1.57137 20.4375
1121 25.1547 12.5754 22.0101
888 36.1589 1.57137 20.4375
889 -0.000350564 3.1435 18.8653
890 1.57172 4.71563 20.4375
891 3.1438 3.1435 18.8653
892 4.71586 4.7156 20.4375
893 6.28796 3.14346 18.8653
894 7.86002 4.71551 20.4376
895 9.43217 3.14341 18.8653
896 11.0042 4.71536 20.4376
897 12.5765 3.14332 18.8653
898 14.1486 4.71517 20.4376
899 15.7209 3.14324 18.8653
900 17.2931 4.71506 20.4376
901 18.8653 3.14323 18.8653