LAMMPS data file via write_data, version 2 Aug 2023, timestep = 303, units = metal

3457 atoms
3 atom types

-0.0003486947286465155 37.731000694728685 xlo xhi
-0.0008033048849980503 37.73145530488497 ylo yhi
-0.0008015527785698047 37.7314535527786 zlo zhi

Masses

1 183.84
2 1.008
3 4.0026

Atoms # atomic

1157 1 6.287947064602612 18.865270938510804 12.576425192924958 0 0 0
2 1 1.5717648735084144 1.5713741373775505 1.5713322912300034 0 0 0
3 1 3.1438603651855033 -0.0007598419458265689 -0.000801552575527779 0 0 0
4 1 4.715957103028967 1.571374137462441 1.571318220736368 0 0 0
1225 1 -0.0002898754457651437 18.865297228004504 15.720915703012762 0 0 0
6 1 7.860188554479138 1.571374137548013 1.5712986598633059 0 0 0
2077 1 18.86493045642006 15.71824700097043 12.573345712239737 0 0 0
8 1 11.00447009973814 1.5713741376048398 1.571280369156572 0 0 0
9 1 12.576626835643056 -0.0007130471859236881 -0.000801552413633693 0 0 0
10 1 14.14879393240315 1.5713741376076296 1.5712735694709419 0 0 0
11 1 15.72096031180268 -0.0007046016170979607 -0.0008015523150916936 0 0 0
12 1 17.29313525309693 1.5713741375856212 1.5712713300637073 0 0 0
1017 1 12.57626711100074 18.865218091011094 6.287361626776471 0 0 0
14 1 1.571767296204679 4.715648202778787 1.571327611739361 0 0 0
15 1 3.1438603652769856 3.143508116754107 -0.0008015525755297936 0 0 0
16 1 4.715947437894652 4.715636499077098 1.5713152141999795 0 0 0
17 1 6.288069219022593 3.143496122479013 -0.0008015525775567412 0 0 0
18 1 7.860169797073698 4.715605955050955 1.5712948868042216 0 0 0
947 1 15.720687751339181 18.865219521929287 3.1431027815801196 0 0 0
20 1 11.004445208517042 4.715568661469334 1.5712758086349514 0 0 0
21 1 12.57662683569431 3.1434613223512597 -0.0008015524136248916 0 0 0
22 1 14.148769150763146 4.715540971903524 1.5712631428693555 0 0 0
23 1 15.720960311776643 3.143452876765146 -0.0008015523150691345 0 0 0
24 1 17.293122268938475 4.715527581054273 1.5712615168472883 0 0 0
25 1 -0.00030623257075776416 6.287792527469455 -0.0008015524192109482 0 0 0
26 1 1.5717742995484134 7.859955377970372 1.571318175254624 0 0 0
27 1 3.143853496436644 6.287796691077913 -0.0008015525172646701 0 0 0
28 1 4.715925708115669 7.859941335954336 1.571307515016674 0 0 0
29 1 6.288040806734449 6.287765359779708 -0.0008015525384913032 0 0 0
30 1 7.860121711011931 7.859890399550702 1.5712862947509652 0 0 0
31 1 9.432285109467461 6.287717774922218 -0.0008015524839952626 0 0 0
32 1 11.004386765084679 7.859828462169506 1.5712641582329019 0 0 0
1299 1 3.1438329368137627 18.865299465317662 18.86532599970761 0 0 0
34 1 14.148708919993927 7.859773268820441 1.571249273439851 0 0 0
145 1 -0.0003321307996144322 -0.0007457362573290993 6.287779104026635 0 0 0
36 1 17.29307432168286 7.859738674779623 1.571242084076364 0 0 0
1993 1 18.865195065856117 12.575368354913731 9.430851302072865 0 0 0
38 1 1.5717864382916575 11.004305897497904 1.5713088520211467 0 0 0
1981 1 18.865253632796577 9.431276525309935 9.431346061320577 0 0 0
40 1 4.715906052070696 11.004298009452773 1.5713015288039804 0 0 0
41 1 6.288005239955113 9.43209734387903 -0.0008015524752267379 0 0 0
42 1 7.860076528004316 11.004254006262547 1.5712827475394748 0 0 0
43 1 9.43222233160923 9.432032528535277 -0.0008015524254815551 0 0 0
44 1 11.004311289837952 11.004176473815209 1.5712516999443986 0 0 0
45 1 12.576512798169382 9.431964028855253 -0.0008015522844345014 0 0 0
46 1 14.148627118514577 11.004102412098419 1.571223674903783 0 0 0
47 1 15.720860189929736 9.431910863483692 -0.0008015521329091434 0 0 0
48 1 17.29301560765614 11.004047461042969 1.5712002349005723 0 0 0
49 1 -0.00025573080505623426 12.576483129463986 -0.0008015521676039972 0 0 0
50 1 1.571797117297145 14.14869024620634 1.5713050333923522 0 0 0
1969 1 18.86528676756777 6.2873155186559915 9.431668455310644 0 0 0
52 1 4.71589768224651 14.148692910199491 1.571300574226782 0 0 0
83 1 15.7209516319373 -0.0006956577720060864 3.1433436096821437 0 0 0
54 1 7.860046556220428 14.148664924669783 1.5712890023220212 0 0 0
55 1 9.432172107394736 12.576427660803162 -0.0008015523346481125 0 0 0
56 1 11.004259836754633 14.148605877937161 1.5712566487950759 0 0 0
57 1 12.576437288184659 12.576351661278489 -0.0008015521693467939 0 0 0
58 1 14.148556059663376 14.148526728570452 1.5712005165260805 0 0 0
59 1 15.720784468984705 12.576284100624706 -0.0008015519182213504 0 0 0
60 1 17.292960809903537 14.148454649189325 1.5711495958404278 0 0 0
61 1 -0.00024413102120164244 15.72088138486164 -0.0008015521008335951 0 0 0
62 1 1.5717999825644866 17.29309161702512 1.571302675069265 0 0 0
495 1 3.1437322388671283 15.720858734014705 18.86532599964966 0 0 0
64 1 4.715893892721147 17.29309952734268 1.5713040979426665 0 0 0
1921 1 18.865218969063406 12.575849620077108 6.286970830620648 0 0 0
66 1 7.86003451301958 17.293088393599724 1.5713007326862665 0 0 0
67 1 9.432142063139308 15.720859659401754 -0.0008015522774211464 0 0 0
68 1 11.004238124619475 17.293059035486696 1.571268723105218 0 0 0
69 1 12.576387811154516 15.720807345312476 -0.0008015520282418207 0 0 0
70 1 14.14852651156469 17.293007686024602 1.5712033075786829 0 0 0
71 1 15.720731172651549 15.720743337059636 -0.0008015517497723625 0 0 0
72 1 17.292930583870948 17.292952049197634 1.5711113159490084 0 0 0
73 1 -0.0003251274983035126 -0.0007551728783610339 3.143472220867183 0 0 0
74 1 1.5717484013941778 1.571374137431666 4.715616399674036 0 0 0
2065 1 18.865137493087566 12.574413301671008 12.574870983867722 0 0 0
76 1 4.715920687733671 1.5713741375195556 4.715579494329369 0 0 0
77 1 6.288045752493124 -0.0007431917275330379 3.143423112186324 0 0 0
78 1 7.860142016530686 1.571374137611926 4.715524035669289 0 0 0
2005 1 18.865098818183426 15.719747203547302 9.430057166335171 0 0 0
80 1 11.004425279988176 1.571374137683226 4.715471974283018 0 0 0
1933 1 18.865175803780772 15.720311050748347 6.2866087678854985 0 0 0
82 1 14.148761115921607 1.5713741377270019 4.715441504501204 0 0 0
1909 1 18.865255259498813 9.431605511184209 6.287248096313095 0 0 0
84 1 17.293132189314353 1.5713741377076451 4.715436616807546 0 0 0
85 1 -0.0003251274432009389 3.1435034475995387 3.143472220920481 0 0 0
86 1 1.5717511827668837 4.715633162467328 4.715606198164905 0 0 0
87 1 3.143846367107716 3.143504337737419 3.143458197111843 0 0 0
88 1 4.715912437515921 4.715622457603677 4.7155696434212 0 0 0
89 1 6.288045752605811 3.143491466764061 3.143423112257113 0 0 0
90 1 7.86012003881159 4.715588850730227 4.715510403523338 0 0 0
91 1 9.432298153168627 3.1434731149222737 3.143383618137376 0 0 0
92 1 11.004394420258123 4.715549835503648 4.715453873200282 0 0 0
93 1 12.576604046829434 3.1434538710399784 3.143353236846987 0 0 0
94 1 14.148727470069979 4.715513383835794 4.715416155843544 0 0 0
95 1 15.720951631942242 3.1434439330584483 3.1433436098018976 0 0 0
96 1 17.293106286623992 4.71549428726041 4.715410778412182 0 0 0
97 1 -0.00030901395908467037 6.2877823259917935 3.143457180598744 0 0 0
98 1 1.571761274784416 7.85993305914189 4.715581316702182 0 0 0
99 1 3.1438404111425444 6.2877851076554885 3.143444158794444 0 0 0
100 1 4.715892624982181 7.859917260484695 4.715546015814667 0 0 0
101 1 6.288018447522806 6.287754586275152 3.1434108769161075 0 0 0
102 1 7.860066884690883 7.859861922263179 4.715480710376153 0 0 0
103 1 9.432254062966017 6.2877036219433355 3.1433665866321143 0 0 0
104 1 11.004315007680265 7.859784817352882 4.71540957308299 0 0 0
105 1 12.57655322484269 6.287651226651784 3.143331628602463 0 0 0
106 1 14.148644143455178 7.859710891714949 4.715360991872214 0 0 0
107 1 15.72090181674587 6.287614508982597 3.1433131770922067 0 0 0
108 1 17.293045470383458 7.859652034151317 4.7153257928949515 0 0 0
1897 1 18.865288011204115 6.287493430808539 6.287451552577922 0 0 0
110 1 1.5717768491335702 11.004287028650966 4.715558542302 0 0 0
111 1 3.1438358724484816 9.432116628582321 3.143428170798928 0 0 0
112 1 4.715880348253765 11.00428072496148 4.715531675997112 0 0 0
113 1 6.287982125170607 9.432083320022882 3.143396505331646 0 0 0
114 1 7.860016792470505 11.004226116526272 4.715466313976285 0 0 0
115 1 9.43218373725623 9.432010961549846 3.1433432625840156 0 0 0
116 1 11.004214610460943 11.004112707598534 4.715359164652987 0 0 0
117 1 12.576467866858204 9.431931801001184 3.1432953859749535 0 0 0
118 1 14.14853830752021 11.003990466616656 4.715256796198485 0 0 0
119 1 15.720827225130826 9.43186552639987 3.1432588032576523 0 0 0
120 1 17.292985709231477 11.003889531893874 4.7151748890134675 0 0 0
1235 1 15.719176752534965 18.864200425128317 15.718929480998662 0 0 0
122 1 1.5717959556371808 14.148678910968524 4.715545889903163 0 0 0
123 1 3.143837451114015 12.5764918536299 3.143416774838314 0 0 0
124 1 4.715880494949566 14.148686277981081 4.7155298228434885 0 0 0
125 1 6.28795793218854 12.576472217388801 3.1433949846503317 0 0 0
126 1 7.859998904205173 14.14865052206873 4.7154858828406345 0 0 0
127 1 9.43213215023338 12.57641190408003 3.143345114429854 0 0 0
128 1 11.004175144445751 14.148552888209942 4.715369068622173 0 0 0
129 1 12.576380559701663 12.576310532568781 3.143256937352839 0 0 0
130 1 14.148460254475774 14.148395848653498 4.715162205788073 0 0 0
131 1 15.720748368248426 12.576213518555504 3.1431712808774934 0 0 0
132 1 17.29292472358978 14.148265199713958 4.714992716910658 0 0 0
1233 1 12.576048337946036 18.865106310240062 15.720433018095713 0 0 0
134 1 1.5718105920763157 17.293089706701753 4.715539717774499 0 0 0
135 1 3.143844204173788 15.720894918495981 3.1434169152747153 0 0 0
136 1 4.715895588044488 17.293104497524777 4.71554538140001 0 0 0
137 1 6.287951656701758 15.720889753114735 3.143406325725963 0 0 0
138 1 7.860010887818163 17.29308124768944 4.715517814742271 0 0 0
139 1 9.432111632890996 15.720851235721936 3.1433675996237036 0 0 0
140 1 11.004184216781564 17.293024654524228 4.715408323381653 0 0 0
141 1 12.576347893973663 15.720774765960885 3.143265529681488 0 0 0
142 1 14.148456044152397 17.292928907841738 4.715177263344694 0 0 0
143 1 15.720698916029656 15.720673960578177 3.143108139657246 0 0 0
144 1 17.292890322588875 17.292820477646703 4.71484589877024 0 0 0
1861 1 18.86519605553675 15.720600049894898 3.142979384025386 0 0 0
146 1 1.5717227864949488 1.57137413751519 7.859941720744202 0 0 0
147 1 3.1438094921101536 -0.0007443269507850944 6.287751238806743 0 0 0
148 1 4.715864124347135 1.5713741376169943 7.8598900369507225 0 0 0
149 1 6.287985323678508 -0.0007324989416201535 6.287689258945408 0 0 0
150 1 7.860061983441402 1.5713741377225847 7.859808715063625 0 0 0
2881 1 18.86426590604037 18.863249225189836 12.571089987876181 0 0 0
152 1 11.00434684001999 1.5713741378273 7.8597333185625144 0 0 0
875 1 15.720710384946049 18.86524447918795 -0.0008015516114580695 0 0 0
154 1 14.148711012207931 1.5713741378811241 7.8596890634297445 0 0 0
2953 1 18.85917920603858 18.853982372321315 15.711986641829622 0 0 0
156 1 17.293123299609153 1.571374137861562 7.859680873316591 0 0 0
157 1 -0.00033213072676512343 3.1434940111001173 6.287779104109352 0 0 0
158 1 1.571724766843116 4.7156121669985405 7.859928913116888 0 0 0
159 1 3.143809492219018 3.1434926019626297 6.287751238915685 0 0 0
160 1 4.715853968993763 4.715597100922258 7.859873493790478 0 0 0
161 1 6.287985323807575 3.1434807741515693 6.287689259072016 0 0 0
162 1 7.860032890498078 4.715556924278874 7.859782727093529 0 0 0
163 1 9.43222987333726 3.1434586166505265 6.2876165591228 0 0 0
164 1 11.004301022938916 4.715497973051361 7.859693473471795 0 0 0
165 1 12.576547189694779 3.1434377159500917 6.287560792537804 0 0 0
166 1 14.14866072193594 4.715444606610722 7.859640567844712 0 0 0
167 1 15.72091845991179 3.143420238818979 6.287535457195634 0 0 0
168 1 17.29308269205372 4.715410032320563 7.859624569195735 0 0 0
873 1 12.576372222840611 18.865273752796526 -0.0008015519876316692 0 0 0
170 1 1.5717309283214445 7.859901278123358 7.859900136575246 0 0 0
171 1 3.143804713574436 6.287758095947214 6.287729085065734 0 0 0
172 1 4.715829765366599 7.859878815821241 7.859838106602278 0 0 0
173 1 6.287955617129592 6.2877249350268025 6.287661397982592 0 0 0
174 1 7.859958968939742 7.859800958624214 7.859725834009965 0 0 0
175 1 9.432170788771336 6.287660823970718 6.287573521732218 0 0 0
176 1 11.004177362065295 7.859667671785739 7.859600738539301 0 0 0
177 1 12.576472129276784 6.287591742233316 6.2875051525915255 0 0 0
178 1 14.14853945043876 7.859541780427594 7.859510559722597 0 0 0
179 1 15.72084740104279 6.287528076665354 6.287463081651044 0 0 0
180 1 17.293007848037455 7.859444845327622 7.859441101590696 0 0 0
181 1 -0.00028875938433384576 9.432076556420578 6.287725004213785 0 0 0
182 1 1.5717536174156057 11.004260801547957 7.859874970923936 0 0 0
183 1 3.1438049447009893 9.432086985356587 6.287700959393634 0 0 0
184 1 4.715819781597452 11.004249524962203 7.859815627602864 0 0 0
185 1 6.287916360685578 9.43204707717888 6.287630254674833 0 0 0
186 1 7.859892819044468 11.004152624237486 7.859692462093927 0 0 0
187 1 9.43207378702066 9.431942792443348 6.287515603885818 0 0 0
188 1 11.00402851097166 11.003933004467916 7.859479114080893 0 0 0
189 1 12.576346924730567 9.431809539180582 6.287402450878208 0 0 0
190 1 14.1483900111854 11.003708067432232 7.859277199260333 0 0 0
191 1 15.720754186920585 9.43168577516886 6.287312111772361 0 0 0
192 1 17.292940256910246 11.003558672467012 7.859145983106939 0 0 0
1229 1 6.287968794176871 18.86527193976086 15.720865582838918 0 0 0
194 1 1.5717861678298601 14.148669323177558 7.8598630760814165 0 0 0
195 1 3.143817491049155 12.576476924185112 6.287687277683525 0 0 0
196 1 4.715844998800172 14.148677289884255 7.859824498235634 0 0 0
197 1 6.2879047513776065 12.576453215695953 6.287632343862093 0 0 0
198 1 7.859914605449504 14.148604046715615 7.859733579506665 0 0 0
199 1 9.432022684122051 12.576347610665964 6.287510233171706 0 0 0
200 1 11.004025978001849 14.148410486188158 7.859491237222235 0 0 0
201 1 12.576229325077323 12.57614302473568 6.287283352239085 0 0 0
202 1 14.148260589970075 14.14807508230509 7.859028699281926 0 0 0
203 1 15.720654554177669 12.57595707776814 6.2870884553981465 0 0 0
204 1 17.292831899542115 14.147865928129395 7.858739229842996 0 0 0
1227 1 3.143840364873389 18.865299147454788 15.72090764355997 0 0 0
206 1 1.571817940423136 17.293091606763568 7.859861629637594 0 0 0
207 1 3.1438392131241577 15.720894124475086 6.287687584336207 0 0 0
208 1 4.715890059728724 17.29310098492408 7.859853473716088 0 0 0
209 1 6.287922900377379 15.720880997825763 6.287657653913537 0 0 0
210 1 7.859971554212401 17.293050260039767 7.859784296271371 0 0 0
211 1 9.432040455603214 15.720807731243198 6.287559663337725 0 0 0
212 1 11.004107373423755 17.292961066592326 7.859575093865431 0 0 0
213 1 12.576236972865583 15.720660838316308 6.287310263999665 0 0 0
214 1 14.14833680013993 17.292800148197422 7.859114123510418 0 0 0
215 1 15.720581819373882 15.720439184364025 6.286896664449198 0 0 0
216 1 17.292745898364053 17.292530091287553 7.858335622450385 0 0 0
1163 1 15.720335009468771 18.86490045449686 12.574739463669474 0 0 0
218 1 1.5716978998687072 1.5713741376016985 11.004306417625681 0 0 0
871 1 9.432127021752672 18.86529199063213 -0.0008015522431988923 0 0 0
220 1 4.7158106010007605 1.5713741377233699 11.00425356613866 0 0 0
2137 1 18.865125322762125 12.572801809982424 15.71946968749703 0 0 0
222 1 7.859983406912825 1.5713741378690191 11.004170064001684 0 0 0
223 1 9.43213496225891 -0.0006840274970995029 9.431923678606385 0 0 0
224 1 11.004256847183996 1.571374138000294 11.00408138345882 0 0 0
225 1 12.576464364601959 -0.0006465634286508068 9.431849988106702 0 0 0
226 1 14.148648509253842 1.5713741380938264 11.00403050935733 0 0 0
227 1 15.720879064249818 -0.0006207350962876057 9.43182239047021 0 0 0
228 1 17.293107607161897 1.5713741380457964 11.004028144833752 0 0 0
1155 1 3.1438559821231897 18.865299443936546 12.576478085271921 0 0 0
230 1 1.5716961471981483 4.715595782344175 11.004296763801788 0 0 0
231 1 3.1437665158172345 3.1434819606432374 9.432093204421564 0 0 0
232 1 4.715795860811434 4.715576067978207 11.004235362447277 0 0 0
233 1 6.287912486859905 3.1434652552995344 9.432019610081259 0 0 0
234 1 7.8599418367805844 4.715516101808123 11.004136429378308 0 0 0
235 1 9.432134962432206 3.1434323031694875 9.431923678829088 0 0 0
236 1 11.004185055032329 4.715408004947287 11.004028381291787 0 0 0
237 1 12.576464364778616 3.143394839352582 9.431849988393163 0 0 0
238 1 14.148566174667039 4.715314650874298 11.003962270619038 0 0 0
239 1 15.720879064405034 3.1433690110758667 9.431822390747922 0 0 0
240 1 17.293053030338868 4.715275724357887 11.003944594490955 0 0 0
241 1 -0.0003346802175917767 6.287734670164589 9.43211046274723 0 0 0
242 1 1.571696156200056 7.8598763367787585 11.004274834479403 0 0 0
243 1 3.143757755619892 6.287728282759404 9.432068053148793 0 0 0
244 1 4.715758999973406 7.859841373855721 11.004197194192791 0 0 0
245 1 6.287871262721734 6.287683031257545 9.431978565479188 0 0 0
246 1 7.859832180468541 7.8597123132607045 11.004069579193095 0 0 0
247 1 9.432043469733594 6.287575207046233 9.431852960607968 0 0 0
248 1 11.003988757334582 7.8594594995782 11.003892874125807 0 0 0
249 1 12.576342750078439 6.287444167407786 9.431749656309636 0 0 0
250 1 14.148377749025116 7.859234719578889 11.003750734779903 0 0 0
251 1 15.720776989658091 6.287351913518109 9.431690548411847 0 0 0
252 1 17.292954994966337 7.859130248098952 11.003677470217088 0 0 0
2593 1 18.865169723718083 18.865220861503577 -0.0008015512896893641 0 0 0
254 1 1.571709917353268 11.004240460168516 11.004256744882726 0 0 0
255 1 3.143750295311515 9.4320526881897 9.432037724042445 0 0 0
256 1 4.715732153195796 11.004205293901839 11.00417192263966 0 0 0
257 1 6.287808255497423 9.431985221179515 9.431930344258058 0 0 0
258 1 7.859719683948605 11.004015072977433 11.004010197564414 0 0 0
259 1 9.431892148017079 9.431790268673192 9.431751222155036 0 0 0
260 1 11.00374556127398 11.003598507624533 11.003675178511731 0 0 0
261 1 12.576147228437295 9.431528087239785 9.431548164802356 0 0 0
262 1 14.148127091239045 11.003184571074462 11.003340714971712 0 0 0
263 1 15.720650834935046 9.431348191120314 9.431415556608819 0 0 0
264 1 17.292834338843715 11.00299862971269 11.003213897942974 0 0 0
265 1 -0.00026774823610447847 12.576433456786923 9.432063894183795 0 0 0
266 1 1.5717550709940904 14.148664570871682 11.004253964043114 0 0 0
267 1 3.1437728546069805 12.57645991959085 9.432027348097517 0 0 0
268 1 4.715783344217081 14.14864768448016 11.004195103634796 0 0 0
269 1 6.287802814947545 12.57639872356343 9.431933312141227 0 0 0
270 1 7.859779403412375 14.148491850034803 11.004057014693291 0 0 0
271 1 9.431826631095118 12.57617722839396 9.431714825205471 0 0 0
272 1 11.003746120289849 14.148124245070951 11.003641276712926 0 0 0
273 1 12.575947153629409 12.575763169565377 9.431270122093325 0 0 0
274 1 14.147746434733127 14.147372491014906 11.00271140574942 0 0 0
275 1 15.72047998924037 12.575467572232315 9.430980581289612 0 0 0
276 1 17.29260895901246 14.14705526305231 11.002427213153107 0 0 0
277 1 -0.00022463443536369782 15.720855963230859 9.432054200412187 0 0 0
278 1 1.5718053909393588 17.293091448860608 11.004260393499044 0 0 0
279 1 3.1438215832848657 15.720891702344609 9.432037443317741 0 0 0
280 1 4.715872527403232 17.293083745815824 11.004237653566951 0 0 0
281 1 6.287875947776432 15.720850036473228 9.431982601336118 0 0 0
282 1 7.859935475929228 17.293006814619602 11.004134644287433 0 0 0
283 1 9.431943340547537 15.720719146308198 9.431812516638994 0 0 0
284 1 11.00401392995392 17.29288007532328 11.003816732395661 0 0 0
285 1 12.57605354896007 15.720461043916256 9.431355912702374 0 0 0
286 1 14.14812565673408 17.292592396817213 11.003089061938159 0 0 0
287 1 15.720282702164953 15.71994943780555 9.430455519168968 0 0 0
288 1 17.29229360172976 17.29169663717806 11.001319485578314 0 0 0
1153 1 -0.00022694469292444103 18.86529271665817 12.576477020651254 0 0 0
290 1 1.5716863001736339 1.5713741376468187 14.148704380878588 0 0 0
865 1 -0.00023923889473651861 18.865295441203713 -0.0008015520861019434 0 0 0
292 1 4.715773242872295 1.5713741378320143 14.148660035379589 0 0 0
943 1 9.432116239129183 18.86528828967484 3.1433903875285525 0 0 0
294 1 7.859929754114819 1.5713741379925739 14.148598280048624 0 0 0
295 1 9.432052404747264 -0.0006546104990747702 12.576322439604695 0 0 0
296 1 11.004188827994033 1.5713741381795348 14.14852976589235 0 0 0
297 1 12.576376667319263 -0.0005888716532814283 12.576246661619743 0 0 0
298 1 14.14858410701906 1.571374138226257 14.148485663154654 0 0 0
299 1 15.720825583567354 -0.0005484707430431329 12.576218828105635 0 0 0
300 1 17.29308558343906 1.5713741382082236 14.14848289837568 0 0 0
1091 1 15.720506382870044 18.865047204287706 9.430722811828229 0 0 0
302 1 1.5716753349962354 4.715585094232805 14.14869506653765 0 0 0
303 1 3.1437316970195552 3.143471775302456 12.576476604092424 0 0 0
304 1 4.715753173250527 4.715558779988972 14.148642511126903 0 0 0
305 1 6.287853261070701 3.143453822323494 12.576410984537503 0 0 0
306 1 7.8598745101406875 4.715480823078987 14.148573954674308 0 0 0
307 1 9.432052405007871 3.143402886544425 12.57632243985512 0 0 0
308 1 11.004088369333356 4.715327725529528 14.148488295461775 0 0 0
309 1 12.576376667617597 3.14333714790464 12.576246661872501 0 0 0
310 1 14.14847114985598 4.715171168201352 14.148418667978264 0 0 0
311 1 15.720825583918543 3.143296747060032 12.576218828338437 0 0 0
312 1 17.29301587811993 4.715106641606054 14.148396815350162 0 0 0
1087 1 9.432039497159682 18.865243696217945 9.431863254584151 0 0 0
314 1 1.5716660726927485 7.859862865804664 14.148683440038987 0 0 0
315 1 3.143716645014499 6.287707373750606 12.576456596550825 0 0 0
316 1 4.715705553287625 7.85981204180594 14.148620102076388 0 0 0
317 1 6.287797067052454 6.2876460632174815 12.576372654190333 0 0 0
318 1 7.859737612650108 7.859634469280557 14.148534471052553 0 0 0
319 1 9.431922112722392 6.287475875526997 12.576255238031354 0 0 0
320 1 11.003846485340556 7.859285564621277 14.1483770564827 0 0 0
321 1 12.576191136409419 6.287242903523614 12.57612550462189 0 0 0
322 1 14.148195168521335 7.858852322434206 14.148181860283119 0 0 0
323 1 15.720678837202408 6.28709507733747 12.57604974870144 0 0 0
324 1 17.29288691763308 7.858687108223049 14.148113555474737 0 0 0
325 1 -0.00034399878106767276 9.432039496017488 12.576492465201554 0 0 0
326 1 1.5716668037264294 11.004230766387783 14.148678959297298 0 0 0
327 1 3.143697590174577 9.432028072619033 12.576434499519232 0 0 0
328 1 4.715665143558469 11.004159124342339 14.148607948796451 0 0 0
329 1 6.287706952319634 9.43191607968886 12.576332340941631 0 0 0
330 1 7.859605696335271 11.003893795071122 14.1484843325141 0 0 0
331 1 9.431717922855583 9.431608765334664 12.576149277636205 0 0 0
332 1 11.003555954576262 11.003327418602519 14.148167734761842 0 0 0
333 1 12.57587881828906 9.431114224904134 12.575836089631007 0 0 0
334 1 14.147678468210472 11.002331880765327 14.147605316341659 0 0 0
335 1 15.720481118055483 9.430811211448212 12.575663980635515 0 0 0
336 1 17.292675175342904 11.00205582604911 14.147560058391264 0 0 0
337 1 -0.0003129017756257854 12.57643067595543 12.576487712922141 0 0 0
338 1 1.5717052993103608 14.14865854496166 14.148685038507375 0 0 0
339 1 3.1437124955280735 12.576436979515599 12.576430103788692 0 0 0
340 1 4.715714924929538 14.148599821121373 14.14862849107972 0 0 0
341 1 6.2876803200209945 12.576305528394867 12.576324626224334 0 0 0
342 1 7.859618981041939 14.148348978965807 14.148480726830494 0 0 0
343 1 9.431566866474178 12.575915062184276 12.576035864866153 0 0 0
344 1 11.003261677661714 14.147681171808088 14.147932598291472 0 0 0
345 1 12.575426541885971 12.575092065691386 12.575317593509768 0 0 0
346 1 14.146403184654014 14.145723164648986 14.146272485964063 0 0 0
347 1 15.720092912596852 12.57453460242943 12.574947388862135 0 0 0
348 1 17.292097290560886 14.145245876367072 14.146290113548176 0 0 0
349 1 -0.00026312993785946405 15.720862042455163 12.576481686962103 0 0 0
350 1 1.5717692368118552 17.293092099102374 14.148697158997589 0 0 0
351 1 3.1437872253241985 15.720879467318248 12.576456041322796 0 0 0
352 1 4.715853052480201 17.293067797503298 14.148669255959101 0 0 0
353 1 6.287814370054173 15.720797588756835 12.576388545770483 0 0 0
354 1 7.859896986000449 17.29297725039379 14.148561746533957 0 0 0
355 1 9.431782955622497 15.72058682992452 12.57614363059345 0 0 0
356 1 11.003820189163223 17.29277076625728 14.148229286455996 0 0 0
357 1 12.57561148688209 15.720047819010372 12.575445111660255 0 0 0
358 1 14.14738335159318 17.291946774322042 14.147218834644335 0 0 0
359 1 15.71920109954338 15.718495320111154 12.573408614249919 0 0 0
360 1 17.29010232030003 17.288430695118457 14.142592640045512 0 0 0
81 1 12.576604046752202 -0.000705595739489695 3.1433532367338937 0 0 0
362 1 1.5716814080871213 1.571374137656773 17.293118145102262 0 0 0
2809 1 18.865015833011757 18.864736242202834 9.429264018390215 0 0 0
364 1 4.715761460250993 1.571374137877983 17.29310068256504 0 0 0
945 1 12.576349259155704 18.86525984919037 3.1432894992318805 0 0 0
366 1 7.859902712985564 1.571374138103608 17.29307524771395 0 0 0
367 1 9.432000754834602 -0.0006336365014003256 15.720802003912372 0 0 0
368 1 11.004150883085922 1.5713741382618949 17.293052132907377 0 0 0
369 1 12.576312621644968 -0.0005478569858126233 15.720754598912082 0 0 0
370 1 14.148545847047984 1.5713741383298545 17.29303399088876 0 0 0
371 1 15.720778447714137 -0.00047634818943383475 15.720729642811099 0 0 0
372 1 17.293068489361417 1.5713741383143407 17.293028641764366 0 0 0
79 1 9.432298153062359 -0.000724839725691595 3.143383618056039 0 0 0
374 1 1.5716695855650338 4.7155830377383765 17.293113371094755 0 0 0
375 1 3.1437159362834795 3.143467476792021 15.720894668971452 0 0 0
376 1 4.715731630477161 4.715546626991907 17.293090691384794 0 0 0
377 1 6.287815818509971 3.1434425234786945 15.720848420586787 0 0 0
378 1 7.859831084391469 4.715454684403675 17.293067889899227 0 0 0
379 1 9.432000755212204 3.1433819128198004 15.720802004067037 0 0 0
380 1 11.004038638152892 4.715290992497176 17.29303935254088 0 0 0
381 1 12.576312622106522 3.1432961335044696 15.720754599065675 0 0 0
382 1 14.148419086642924 4.715085826612824 17.293006274469093 0 0 0
383 1 15.720778448221544 3.1432246247866065 15.720729642954659 0 0 0
384 1 17.29298722819382 4.7149682562139965 17.2929929595313 0 0 0
1085 1 6.287945863574911 18.865284552313828 9.432026179142147 0 0 0
386 1 1.5716480436785407 7.859855995009871 17.2931090140435 0 0 0
387 1 3.1436881431655763 6.287693872357259 15.720876466466361 0 0 0
388 1 4.715671025401386 7.859784338454872 17.29308430815949 0 0 0
389 1 6.28774231929149 6.287609637441484 15.720830141650215 0 0 0
390 1 7.859687862697219 7.859586291539892 17.29306024296817 0 0 0
391 1 9.431843996517815 6.287410783929806 15.720771548966178 0 0 0
392 1 11.003799415846325 7.859214030809746 17.29299791309684 0 0 0
393 1 12.57609387279521 6.287107267869798 15.720673945402934 0 0 0
394 1 14.148118551374798 7.858654736178378 17.292905969619365 0 0 0
395 1 15.720589836590598 6.286822068475133 15.720596041088662 0 0 0
396 1 17.2928080284192 7.858256228472254 17.292857474460995 0 0 0
75 1 3.143846367014649 -0.0007560628780396428 3.1434581970526168 0 0 0
398 1 1.5716395854530727 11.00422321806274 17.29311090827277 0 0 0
399 1 3.1436622307062407 9.432009749412332 15.720869719549077 0 0 0
400 1 4.715636366399903 11.004125236283988 17.293086176653127 0 0 0
401 1 6.287648050076439 9.43185867580816 15.720819326587355 0 0 0
402 1 7.859580970249714 11.003842115965682 17.293043561728712 0 0 0
403 1 9.431640049913657 9.431504940367217 15.72071185361158 0 0 0
404 1 11.003518481047166 11.003204509428507 17.292902635573515 0 0 0
405 1 12.575756897512369 9.430870034204968 15.720479377320485 0 0 0
406 1 14.14758435969891 11.002031315883281 17.292691396968987 0 0 0
407 1 15.720245647927264 9.43008774632133 15.72023980174228 0 0 0
408 1 17.29235587854055 11.00072662398757 17.292496736465004 0 0 0
483 1 3.143655864875593 12.576401511259212 18.865325999605957 0 0 0
410 1 1.5716691141678636 14.14865387867924 17.293115420521243 0 0 0
411 1 3.143669469273252 12.5764129811124 15.72087512715995 0 0 0
412 1 4.71568568571243 14.14856953592911 17.293093832142468 0 0 0
413 1 6.287621311332616 12.576235701335454 15.720812337733937 0 0 0
414 1 7.859585637077964 14.148283721197213 17.29303133764784 0 0 0
415 1 9.43148014710977 12.575772518116981 15.720619350389073 0 0 0
416 1 11.003218406631191 14.147491042608936 17.292819627202196 0 0 0
417 1 12.575253684083332 12.574748585956726 15.720155812731088 0 0 0
418 1 14.146538685531407 14.145512823536132 17.29227839278713 0 0 0
419 1 15.719171297293128 12.57260983288225 15.719195128587257 0 0 0
420 1 17.29030085256521 14.140706036429053 17.290785359443518 0 0 0
421 1 -0.0003270674093040858 15.720874163021703 15.720914949055091 0 0 0
422 1 1.5717320449518508 17.293092853065446 17.2931199318626 0 0 0
423 1 3.1437465337913455 15.720863650365477 15.720893732057256 0 0 0
424 1 4.715835990170201 17.293059936927627 17.293109375772563 0 0 0
425 1 6.287748949116239 15.720745273034485 15.720841484060623 0 0 0
426 1 7.859846091660957 17.29294118707558 17.29306914798404 0 0 0
427 1 9.431541180935664 15.720415203298966 15.720633600419358 0 0 0
428 1 11.003462225094252 17.292531564385914 17.29293769752838 0 0 0
429 1 12.574511809519166 15.719192911987834 15.719787702817516 0 0 0
430 1 14.145132800375105 17.290353549775393 17.292000108856552 0 0 0
431 1 15.715264985299179 15.713792590565175 15.715223351288074 0 0 0
432 1 17.27716868594696 17.2732112382943 17.27851933623469 0 0 0
1729 1 18.8653072343615 -0.0006991229823127153 -0.0008015522376517605 0 0 0
1741 1 18.865307234291773 3.1434473980898616 -0.0008015522376401339 0 0 0
1083 1 3.1438667131335203 18.86530445589635 9.432058578014304 0 0 0
2665 1 18.865185595575404 18.865184324256 3.1428827150591547 0 0 0