LAMMPS data file via write_data, version 2 Aug 2023, timestep = 189, units = metal

3457 atoms
3 atom types

-0.0008017892019691709 37.73145378920196 xlo xhi
-0.00034996529627029767 37.731001965296244 ylo yhi
-0.0008013843323192184 37.731453384332305 zlo zhi

Masses

1 183.84
2 1.008
3 4.0026

Atoms # atomic

432 1 17.273192164195756 17.276952994481015 17.27857344855121 0 0 0
2 1 1.5713755265840963 1.5717870658287085 1.5713718214890018 0 0 0
2125 1 18.865278578725274 9.431876018419354 15.720775850935592 0 0 0
4 1 4.715721465502007 1.5717862996178344 1.5713687766442963 0 0 0
2173 1 18.86531476333297 3.1437547811972886 18.865325999731915 0 0 0
6 1 7.860070033913699 1.5717854593454375 1.5713608025065104 0 0 0
2137 1 18.865200874036606 12.575846507557536 15.720485039791658 0 0 0
8 1 11.004422146393308 1.5717842839082128 1.5713512382582369 0 0 0
2101 1 18.865311050741497 3.1437684755963597 15.720906418023427 0 0 0
10 1 14.148777493893661 1.5717823175962888 1.571340860525247 0 0 0
2077 1 18.865000967060915 15.720270711580064 12.574924502554316 0 0 0
12 1 17.29313852321177 1.5717819755753881 1.5713330104450087 0 0 0
431 1 15.713895279228772 15.71507875128382 15.71523671212457 0 0 0
14 1 1.5713755266097724 4.716057684830472 1.571366354854181 0 0 0
439 1 9.432120724527952 -0.0003410583352559731 18.865325999760113 0 0 0
16 1 4.715711670257718 4.7160492108688326 1.5713610579316386 0 0 0
17 1 6.287893776211498 3.14391525562055 -0.0008013842988517521 0 0 0
18 1 7.860054573185316 4.7160300446507915 1.5713499286627703 0 0 0
19 1 9.432245182535551 3.143904918166636 -0.000801384269317926 0 0 0
20 1 11.004408575893635 4.7160100987682245 1.571339692003357 0 0 0
369 1 12.576494623669179 -0.0003286452558499729 15.72093296466685 0 0 0
22 1 14.14876837918174 4.715991742503806 1.5713331002358988 0 0 0
365 1 6.287801785519369 -0.0003412876077739729 15.720950757544394 0 0 0
24 1 17.293132551027387 4.715977879090938 1.5713271115642344 0 0 0
430 1 14.140839559015234 17.290235110018024 17.29084010973522 0 0 0
26 1 1.5713755266429925 7.860331192705553 1.5713557602242074 0 0 0
27 1 3.143539745277619 6.288193975909385 -0.0008013843060168288 0 0 0
28 1 4.715690539971303 7.860315537251987 1.5713475634383556 0 0 0
29 1 6.287873356682554 6.288174001026666 -0.0008013842818426488 0 0 0
30 1 7.8600199578053065 7.860280964810722 1.5713292216955899 0 0 0
31 1 9.432217252140207 6.288144626017151 -0.000801384246935622 0 0 0
32 1 11.00437083602461 7.860243278263995 1.571314902110261 0 0 0
33 1 12.576576646502772 6.288119068428616 -0.0008013842170889056 0 0 0
34 1 14.148742910696775 7.860215925365312 1.5713084921057348 0 0 0
35 1 15.720943565848263 6.288098204750452 -0.0008013842027380608 0 0 0
36 1 17.293123050513596 7.860198311771714 1.571308258027108 0 0 0
429 1 12.572875751219694 15.719168031782832 15.719266090650647 0 0 0
38 1 1.5713755266696003 11.004609165665991 1.5713444563471854 0 0 0
39 1 3.1435286978725205 9.432469593787882 -0.000801384277530491 0 0 0
40 1 4.715667121704338 11.004591998921628 1.5713333906986784 0 0 0
41 1 6.287841032139935 9.432438324435578 -0.0008013842315434737 0 0 0
42 1 7.859976666249043 11.00454793607741 1.571308603471924 0 0 0
43 1 9.432174462547874 9.43239557222964 -0.0008013841737252134 0 0 0
44 1 11.004319440588821 11.00449690582885 1.5712823975783048 0 0 0
45 1 12.576537599625617 9.432356911868338 -0.0008013841373081629 0 0 0
46 1 14.148703522462533 11.004460242632067 1.5712757425171027 0 0 0
47 1 15.72091899889302 9.432329918380821 -0.0008013840950478175 0 0 0
48 1 17.2931015309447 11.004436341526638 1.5712777175900565 0 0 0
428 1 11.001002724771586 17.292398216840002 17.292543678387336 0 0 0
50 1 1.571375526691758 14.148890142766014 1.5713325647987055 0 0 0
437 1 6.28779621761106 -0.0003412246847726055 18.86532599989215 0 0 0
52 1 4.715646348970871 14.148878814744394 1.5713237682715127 0 0 0
53 1 6.287809448898386 12.576719576993845 -0.0008013841688731398 0 0 0
54 1 7.859939243278963 14.1488409647485 1.5712938369089835 0 0 0
55 1 9.432128512935442 12.576672444592756 -0.0008013840901952145 0 0 0
56 1 11.004270955397606 14.14879027776922 1.571261222992531 0 0 0
57 1 12.576485394744791 12.576621023354031 -0.0008013839953882597 0 0 0
58 1 14.148647697849366 14.148734977711774 1.5712290159430087 0 0 0
59 1 15.720884572369272 12.576588847742507 -0.0008013839294961387 0 0 0
60 1 17.29307364923823 14.148703489387419 1.571225431012371 0 0 0
427 1 9.43038434299466 15.720325924286039 15.72035893609449 0 0 0
62 1 1.57137552669784 17.293177593648426 1.5713243791958342 0 0 0
299 1 15.72089691199301 -0.0002760723060223832 12.576526588689836 0 0 0
64 1 4.715631051406044 17.29317201756516 1.5713176278334429 0 0 0
65 1 6.287784479379204 15.721015383066922 -0.0008013840997684511 0 0 0
66 1 7.859915013154891 17.293153329882536 1.5712893618615038 0 0 0
67 1 9.432090575912937 15.72097718345261 -0.0008013839755341034 0 0 0
68 1 11.00423550827061 17.2931138558652 1.571248961908515 0 0 0
69 1 12.576441735053347 15.720931713289158 -0.000801383829163677 0 0 0
70 1 14.148607371336642 17.29306942210333 1.571196819837617 0 0 0
1235 1 15.714523881732656 18.864846412920883 15.717541426958189 0 0 0
72 1 17.29303667934977 17.29303226080718 1.5711584338277902 0 0 0
426 1 7.858527573312859 17.292899313944297 17.2929251702795 0 0 0
74 1 1.5713755266088596 1.5717816872692794 4.715719312542143 0 0 0
2017 1 18.865300037619868 -0.00025512519743589346 12.57651839661042 0 0 0
76 1 4.715709616787144 1.5717795028400985 4.715709860114389 0 0 0
2005 1 18.8651068098341 15.720451790234247 9.430944535493222 0 0 0
78 1 7.8600492371493935 1.5717764882456697 4.715688174981207 0 0 0
295 1 9.432146285843157 -0.0003317322518042109 12.576557822315094 0 0 0
80 1 11.004398779638578 1.5717784701176358 4.71566335343096 0 0 0
1969 1 18.86531951178209 6.287941277785501 9.432063465870936 0 0 0
82 1 14.148759406957858 1.5717815754259756 4.715641174284441 0 0 0
1957 1 18.8653126508414 3.1438254330769624 9.432111755675171 0 0 0
84 1 17.29312800585783 1.5717810211361793 4.715624773689109 0 0 0
425 1 6.28702794296726 15.720758440861212 15.720720530439404 0 0 0
86 1 1.5713755266626783 4.716039195696717 4.715701274858056 0 0 0
87 1 3.143543404439533 3.143915685377682 3.143538841533358 0 0 0
88 1 4.715692944480527 4.716025359706572 4.715687245219003 0 0 0
89 1 6.287883552899099 3.1439055316545454 3.1435256439010573 0 0 0
90 1 7.860027228386277 4.715997236260833 4.71565802381106 0 0 0
91 1 9.43223148938492 3.1438932231204593 3.1435068411787266 0 0 0
92 1 11.004382580514713 4.715972910084031 4.7156306778418 0 0 0
93 1 12.57658905343575 3.1438837548723626 3.1434911482430516 0 0 0
94 1 14.148755577590249 4.715961628131816 4.7156170202260235 0 0 0
95 1 15.720949943539079 3.1438746205001755 3.1434759373211367 0 0 0
96 1 17.293128328923604 4.715952015537635 4.715604062759807 0 0 0
424 1 4.715111114544981 17.29309152305004 17.293052269290268 0 0 0
98 1 1.5713755267292064 7.860301665283508 4.715670128081355 0 0 0
99 1 3.14353337110633 6.288180434920919 3.1435206336144073 0 0 0
100 1 4.71566250219747 7.860280630756055 4.71564853250815 0 0 0
101 1 6.287856537726517 6.288154624308103 3.1434979159471843 0 0 0
102 1 7.8599757497859954 7.860230446377119 4.715598402089367 0 0 0
103 1 9.43220017271057 6.288121285088396 3.143471365660301 0 0 0
104 1 11.004334763767257 7.860184380639326 4.715558639358348 0 0 0
105 1 12.576565895542691 6.288095400589024 3.1434544478984785 0 0 0
106 1 14.148727062044633 7.860157552883655 4.715543368382471 0 0 0
107 1 15.720941220955462 6.288078799258128 3.1434491230285024 0 0 0
108 1 17.293125390874817 7.860148320772553 4.715548934673517 0 0 0
423 1 3.1432961197295293 15.720915001270622 15.720834213668855 0 0 0
110 1 1.5713755267782592 11.004578703565537 4.715638193779754 0 0 0
111 1 3.143518921248191 9.432452463145362 3.1434964504305882 0 0 0
112 1 4.715629430165246 11.004556253582175 4.7156085343807606 0 0 0
113 1 6.287817994475255 9.432417000959273 3.143463329208834 0 0 0
114 1 7.859917633462235 11.004497498990412 4.715537454394031 0 0 0
115 1 9.432148347745002 9.432365520522971 3.143417444853847 0 0 0
116 1 11.004254300365462 11.004417316848116 4.715449692322078 0 0 0
117 1 12.576521243799482 9.43232403298328 3.143394549819913 0 0 0
118 1 14.14867099259745 11.004372824267275 4.715432295070242 0 0 0
119 1 15.720915890345392 9.432299302005905 3.1433918300736248 0 0 0
120 1 17.29309716449231 11.004357599924324 4.715445330976384 0 0 0
422 1 1.5713755273963195 17.29313465008149 17.29308158458034 0 0 0
122 1 1.571375526783651 14.14887182120724 4.7156136954260734 0 0 0
123 1 3.1435075207831877 12.5767360297272 3.143475486131122 0 0 0
124 1 4.715609193143103 14.148856658476825 4.715583270093192 0 0 0
125 1 6.28778243931762 12.576701797276913 3.143433726307488 0 0 0
126 1 7.859869855675828 14.148801721496811 4.715493160921804 0 0 0
127 1 9.432094890265285 12.576645498379849 3.1433737207033667 0 0 0
128 1 11.004184817984326 14.148718180429906 4.715378888789646 0 0 0
129 1 12.576453311762249 12.576578539465588 3.14331232298302 0 0 0
130 1 14.148568893983372 14.14862539829906 4.715260800727529 0 0 0
131 1 15.720873398872438 12.576541513816206 3.14330754458403 0 0 0
132 1 17.29304045131937 14.148604897805926 4.7152641733451865 0 0 0
421 1 -0.0005450649010738122 15.720915001191917 15.720834213521206 0 0 0
134 1 1.571375526775406 17.29316976429359 4.7155966692303 0 0 0
135 1 3.1434985291707003 15.721025593963718 3.1434584110289823 0 0 0
136 1 4.7155990643460415 17.293166420061883 4.715570457082554 0 0 0
137 1 6.287758970696582 15.721007674817276 3.1434203165878003 0 0 0
138 1 7.859848643358373 17.293135458134582 4.715483112372407 0 0 0
139 1 9.432053959605327 15.720958750115482 3.143348113623207 0 0 0
140 1 11.004136050532082 17.293072472935975 4.715335965229541 0 0 0
141 1 12.576398784240775 15.720894953187722 3.1432607145409954 0 0 0
142 1 14.148489074334307 17.293003819658182 4.715146969052048 0 0 0
143 1 15.720809285703755 15.72083564062045 3.143181441350988 0 0 0
144 1 17.29295344635601 17.292955877708394 4.715003159901203 0 0 0
420 1 17.290469316055965 14.144887228058542 17.292016143829603 0 0 0
146 1 1.5713755266496754 1.5717724519667087 7.860068511030922 0 0 0
1933 1 18.865209193806653 15.720675098235338 6.287094387986147 0 0 0
148 1 4.715691021840045 1.5717672061706616 7.860055444423871 0 0 0
1909 1 18.865308587627457 9.432198799888726 6.287635444519955 0 0 0
150 1 7.860018241653323 1.5717604455426413 7.86002514386166 0 0 0
1885 1 18.8653127085708 3.143849538785049 6.287769517561472 0 0 0
152 1 11.004366094170273 1.5717625310995578 7.8599933177333545 0 0 0
2149 1 18.864308386256212 15.719016614286323 15.719043504744484 0 0 0
154 1 14.148735002977892 1.5717714657978414 7.859969206491659 0 0 0
1861 1 18.865269157766456 15.720816107038894 3.1431772050995312 0 0 0
156 1 17.293115473258027 1.571779261740465 7.859951399416061 0 0 0
419 1 15.719374042842992 12.5743832910613 15.719827178359324 0 0 0
158 1 1.5713755267498335 4.716008921205219 7.860040340757395 0 0 0
159 1 3.1435339451468325 3.1438980059919297 6.287881055191495 0 0 0
160 1 4.715666087827491 4.715987945678627 7.860022245205621 0 0 0
161 1 6.2878571339530716 3.1438798321895236 6.287856895731168 0 0 0
162 1 7.8599825329303155 4.715942528817685 7.859980041311814 0 0 0
163 1 9.432199612686313 3.14386112442285 6.287826218381729 0 0 0
164 1 11.004343219274915 4.7159097430720225 7.859946049243343 0 0 0
165 1 12.576561943568239 3.143853515327165 6.287801223572071 0 0 0
166 1 14.148732623826941 4.715898942840956 7.859928842726188 0 0 0
167 1 15.72093587289587 3.143853579084279 6.287783828448613 0 0 0
168 1 17.293127308145433 4.715903016218338 7.85992064841182 0 0 0
418 1 14.14572670324706 14.146444823791397 17.292258489695172 0 0 0
170 1 1.5713755268448915 7.860254577332631 7.859993609942794 0 0 0
171 1 3.143516238635528 6.288144871792958 6.287845632811586 0 0 0
172 1 4.7156164913139875 7.860221854118612 7.859963201441151 0 0 0
173 1 6.287814761836187 6.288104901779242 6.287807981334495 0 0 0
174 1 7.859902176438991 7.860142693918962 7.859890545836877 0 0 0
175 1 9.432152708425493 6.2880542436275295 6.287760671836689 0 0 0
176 1 11.004263489781941 7.860061334073605 7.859822472633698 0 0 0
177 1 12.576532782360216 6.288022722018009 6.287732772277296 0 0 0
178 1 14.148693561752093 7.8600312373221515 7.8598095882560655 0 0 0
179 1 15.720933557812886 6.288014506459502 6.2877278266605146 0 0 0
180 1 17.293117580706205 7.860044344808383 7.859832389628494 0 0 0
417 1 12.57500392482199 12.575243946609417 15.72023996551424 0 0 0
182 1 1.5713755269042735 11.004528504048235 7.859945806937591 0 0 0
183 1 3.1434959575128754 9.432407103965021 6.287800626880608 0 0 0
184 1 4.715570348455825 11.004494166047435 7.8599038823523655 0 0 0
185 1 6.287755222610011 9.432353380710616 6.287740878625488 0 0 0
186 1 7.8597995671762195 11.004388361161439 7.859780666004501 0 0 0
187 1 9.432064665202224 9.432266175006621 6.287647166144508 0 0 0
188 1 11.004098445794147 11.004225483009183 7.85961432564232 0 0 0
189 1 12.576463697028316 9.432204700974532 6.287602518987661 0 0 0
190 1 14.148572889261034 11.0041687778331 7.859593925207484 0 0 0
191 1 15.720894844979304 9.4321846348698 6.287608341694923 0 0 0
192 1 17.293051878299487 11.004191049559784 7.859643005002781 0 0 0
416 1 11.002332323879772 14.147640182836716 17.292738583290205 0 0 0
194 1 1.5713755269462564 14.148833148445963 7.859911168180058 0 0 0
195 1 3.143477922453154 12.576695376599153 6.287762254878019 0 0 0
196 1 4.715534570770013 14.148806624275881 7.859861918849019 0 0 0
197 1 6.287702060766468 12.576643853654382 6.287684293965923 0 0 0
198 1 7.859715123916232 14.148709548437333 7.859709099025575 0 0 0
199 1 9.431976648567902 12.576544876376463 6.287552915102213 0 0 0
200 1 11.003948182822462 14.148547389734414 7.859474383529955 0 0 0
201 1 12.576320451796974 12.576409749074104 6.2873974929042795 0 0 0
202 1 14.148290493911956 14.148354328742125 7.859181960313085 0 0 0
203 1 15.720807107610264 12.576382998453107 6.287404263672999 0 0 0
204 1 17.29292073495839 14.148395440749908 7.859270319201357 0 0 0
415 1 9.431120474652014 12.575915684895902 15.720592018272425 0 0 0
206 1 1.5713755269293543 17.293159977440155 7.85989551285281 0 0 0
207 1 3.1434709634625335 15.721007407787358 6.287741135085547 0 0 0
208 1 4.715519833118431 17.29315210256957 7.85984998211604 0 0 0
209 1 6.28767284177625 15.720973189850184 6.287658123780693 0 0 0
210 1 7.8596644428800975 17.293089551280925 7.859686932905665 0 0 0
211 1 9.4319077956362 15.72088293014711 6.28749733561806 0 0 0
212 1 11.00383162095383 17.292992781284948 7.859387257652922 0 0 0
213 1 12.57620594771485 15.720769804345794 6.2872706776288565 0 0 0
214 1 14.148105056063974 17.292868852282744 7.858969926751169 0 0 0
215 1 15.72062983404374 15.720668391571857 6.2870600576135764 0 0 0
216 1 17.292656694601902 17.292751305913523 7.858582839706811 0 0 0
414 1 7.858910124207708 14.148299995374156 17.292967764849713 0 0 0
218 1 1.5713755266890215 1.5717632675938182 11.004422368615561 0 0 0
1837 1 18.865309481988724 9.43228626559681 3.1433985861932645 0 0 0
220 1 4.715670931421409 1.571755149077566 11.004408802191206 0 0 0
1825 1 18.8653152313325 6.288065924203867 3.1434426916627114 0 0 0
222 1 7.859988089214098 1.5717409574823573 11.004379242526868 0 0 0
1813 1 18.86531749174622 3.143870302007138 3.143467223685344 0 0 0
224 1 11.004335617003083 1.5717352707509 11.004349660050803 0 0 0
1233 1 12.573027987701654 18.865163719487157 15.719585200820946 0 0 0
226 1 14.148715338761788 1.571750117388423 11.00433039783158 0 0 0
227 1 15.720907661069361 -0.000272248904232485 9.432136744090396 0 0 0
228 1 17.293110212934643 1.5717683791775958 11.004317476781587 0 0 0
413 1 6.2872746716812795 12.576351426820269 15.720775455341029 0 0 0
230 1 1.5713755268414746 4.715976705283665 11.004393032581412 0 0 0
231 1 3.1435211968688206 3.1438754042537123 9.432229185411224 0 0 0
232 1 4.715638937413587 4.715949990679773 11.004374977424849 0 0 0
233 1 6.28782593053999 3.14384852988337 9.432201765006287 0 0 0
234 1 7.859941226775235 4.715890268469103 11.00433348558087 0 0 0
235 1 9.432160133539696 3.1438171781252047 9.432163923161202 0 0 0
236 1 11.004295061454258 4.715824507123108 11.004287702462403 0 0 0
237 1 12.576532037618534 3.1438091588260995 9.432138805033407 0 0 0
238 1 14.148712852806955 4.71581646590287 11.004275672402256 0 0 0
239 1 15.720923701260721 3.143816062641327 9.432124405571768 0 0 0
240 1 17.293125622557756 4.7158416104147385 11.004276302352096 0 0 0
412 1 4.715222382305912 14.148637447426704 17.29306182815964 0 0 0
242 1 1.5713755269474694 7.860204830418201 11.004342822265228 0 0 0
243 1 3.1434987294261747 6.288100128923887 9.432184973205986 0 0 0
244 1 4.715578155611896 7.860162314797674 11.004312520830961 0 0 0
245 1 6.287765213659715 6.288041375185765 9.432140206454587 0 0 0
246 1 7.859823581267714 7.860041519871091 11.004225307598276 0 0 0
247 1 9.432084495220362 6.287954045332351 9.43207258277001 0 0 0
248 1 11.004150175586314 7.859875958659744 11.004119521128583 0 0 0
249 1 12.576490068499739 6.287908538261173 9.432041985645563 0 0 0
250 1 14.14862902218478 7.859844757839496 11.004123008016567 0 0 0
251 1 15.720920438857023 6.28791252948299 9.43204483362841 0 0 0
252 1 17.29309046498318 7.859913186903437 11.00417242390067 0 0 0
411 1 3.1433562380313638 12.576540718474972 15.720857672691663 0 0 0
254 1 1.5713755271050722 11.004466829900124 11.004282777937352 0 0 0
255 1 3.1434647317760915 9.432345609739599 9.432124020714548 0 0 0
256 1 4.715486338805798 11.00440939793165 11.004227143771883 0 0 0
257 1 6.2876631723832554 9.432257475336376 9.432041104114774 0 0 0
258 1 7.859609191785499 11.004220656169835 11.004058002659876 0 0 0
259 1 9.431931330167272 9.432103654279425 9.43190657724778 0 0 0
260 1 11.003806646785689 11.00391615372664 11.003814702882247 0 0 0
261 1 12.576339819659026 9.43198231556522 9.431828846336353 0 0 0
262 1 14.148322932140905 11.003807823273844 11.00376202525831 0 0 0
263 1 15.720841517088038 9.432005495601665 9.431875421336267 0 0 0
264 1 17.29298058252651 11.003984630992102 11.003918365843148 0 0 0
410 1 1.5713755274049925 14.148723802238568 17.293086586116694 0 0 0
266 1 1.571375527142495 14.148790613174812 11.004246024439253 0 0 0
267 1 3.1434409506376584 12.576641875199092 9.432076611311414 0 0 0
268 1 4.715425537732242 14.148748566425473 11.004179795380054 0 0 0
269 1 6.287576445422191 12.576554881414815 9.431962487842464 0 0 0
270 1 7.859444912845415 14.148574638547263 11.003965927421367 0 0 0
271 1 9.431738184606573 12.576354266202705 9.431740614863926 0 0 0
272 1 11.003458194637304 14.148251480866632 11.003558202016418 0 0 0
273 1 12.575988894133044 12.576071462572502 9.431426033707792 0 0 0
274 1 14.147594035458692 14.147761606670478 11.002870234204163 0 0 0
275 1 15.720639217602333 12.576111244590216 9.43149955087405 0 0 0
276 1 17.2927386417001 14.148084527714843 11.003278606759697 0 0 0
277 1 -0.0006738141969068914 15.72097637892712 9.432048699787387 0 0 0
278 1 1.5713755271242975 17.293152974751223 11.004230671827829 0 0 0
279 1 3.143424868315684 15.72097637890947 9.432048699999742 0 0 0
280 1 4.715395797338201 17.293135788858002 11.004167952546322 0 0 0
281 1 6.287514138947061 15.720916952587629 9.43192442421802 0 0 0
282 1 7.8593654337505345 17.293041894228303 11.003937566473718 0 0 0
283 1 9.431603572190843 15.72076661167946 9.431658712216912 0 0 0
284 1 11.003294558836048 17.292893992923112 11.003466239815983 0 0 0
285 1 12.575746511663002 15.720559589539851 9.431212409872746 0 0 0
286 1 14.147305051677787 17.292633027433236 11.002668805231433 0 0 0
287 1 15.720125257861719 15.720283727616524 9.430660659676146 0 0 0
288 1 17.29183391953558 17.292237597344197 11.001548342740145 0 0 0
408 1 17.29266062879706 11.003260486854561 17.29296093862998 0 0 0
290 1 1.5713755267246925 1.5717537209801706 14.148780290945613 0 0 0
1777 1 18.865296224541645 12.576568023287184 -0.0008013839109869143 0 0 0
292 1 4.71565512139622 1.5717477780007039 14.14877190059825 0 0 0
1765 1 18.86530814183679 9.432317198495737 -0.0008013840563925748 0 0 0
294 1 7.859964685368208 1.571726437073686 14.14874980037113 0 0 0
1753 1 18.86531554979948 6.288086413779782 -0.0008013842011669911 0 0 0
296 1 11.004313857364824 1.571711982746959 14.14873044667598 0 0 0
297 1 12.576507544660315 -0.0003103835838315261 12.576538158112523 0 0 0
298 1 14.148703769323333 1.5717158062411365 14.148719697615503 0 0 0
293 1 6.287818186187858 -0.0003418419479761797 12.576582226176733 0 0 0
300 1 17.293107814865934 1.5717444374117808 14.148713650712365 0 0 0
407 1 15.720550977844297 9.431414788824693 15.720678250954633 0 0 0
302 1 1.5713755268948288 4.715952611517253 14.148762685699527 0 0 0
303 1 3.143511476489667 3.1438558879080527 12.576589064200537 0 0 0
304 1 4.7156230243729835 4.715924260434311 14.148749788916003 0 0 0
305 1 6.287798502281093 3.143822354834279 12.576563545188735 0 0 0
306 1 7.859910843859554 4.715851319832934 14.148712720852698 0 0 0
307 1 9.43212878526703 3.143780760211296 12.576531598335324 0 0 0
308 1 11.004266481206912 4.715766410254984 14.148679963052835 0 0 0
309 1 12.576505938292343 3.143751957054817 12.57650779341856 0 0 0
310 1 14.14868710119401 4.715726738273391 14.148665891578535 0 0 0
311 1 15.720916868131283 3.1437694802342264 12.57649818672879 0 0 0
312 1 17.29311801623457 4.715782504130899 14.148679239751885 0 0 0
406 1 14.147721570216515 11.003143795078113 17.292862173693038 0 0 0
314 1 1.5713755270570042 7.860165219392598 14.148720374765817 0 0 0
315 1 3.143483779847808 6.288059748952085 12.576548014239398 0 0 0
316 1 4.715550106679585 7.8601163199663855 14.148694819245028 0 0 0
317 1 6.287726260262162 6.287988543405151 12.576507008726521 0 0 0
318 1 7.859767325905446 7.859968357322897 14.148626296737035 0 0 0
319 1 9.432033823869503 6.287872363835715 12.576445318386085 0 0 0
320 1 11.004066250378617 7.859752739644391 14.148553910942878 0 0 0
321 1 12.576424398376748 6.2877601255355815 12.576393894087296 0 0 0
322 1 14.148504216564579 7.859615264742768 14.14851868688123 0 0 0
323 1 15.72089556214949 6.287795106835144 12.576419063948336 0 0 0
324 1 17.29306136139664 7.859789128443971 14.148598345041265 0 0 0
405 1 12.575974646364077 9.43151503632817 15.720690737922707 0 0 0
326 1 1.5713755272319747 11.00442175577802 14.148673717631254 0 0 0
327 1 3.143444281693533 9.432293308079052 12.57649219129944 0 0 0
328 1 4.715429457737197 11.00435230140312 14.14862934460569 0 0 0
329 1 6.287592766661751 9.43217732269092 12.576412297371196 0 0 0
330 1 7.859470152333285 11.00410132503308 14.148499669117745 0 0 0
331 1 9.431788946392128 9.431938040369694 12.57627364344599 0 0 0
332 1 11.003558092511945 11.003681213184032 14.148289765239975 0 0 0
333 1 12.57610420954086 9.431652033763593 12.576120138624004 0 0 0
334 1 14.147868820486794 11.003211558694717 14.148024870199624 0 0 0
335 1 15.720730628364445 9.431748522274539 12.576218657987376 0 0 0
336 1 17.29288304600573 11.003682224825743 14.14830798124423 0 0 0
337 1 -0.0006377266969754138 12.576579079350694 12.576431313921864 0 0 0
338 1 1.5713755272983654 14.148748206416114 14.14863310903156 0 0 0
339 1 3.1433887811418173 12.576579079449584 12.576431314108643 0 0 0
340 1 4.7152892710110015 14.148677493584923 14.148569420007382 0 0 0
341 1 6.287387584663341 12.576429249572618 12.576294078999666 0 0 0
342 1 7.859076755977907 14.148380710411777 14.148338064060937 0 0 0
343 1 9.431333175316679 12.576058194677785 12.575995362204004 0 0 0
344 1 11.002606414669494 14.147735897177004 14.147751088675964 0 0 0
345 1 12.575320058534817 12.575462860585207 12.575450752919526 0 0 0
346 1 14.145942028968825 14.146341744814006 14.146359509868375 0 0 0
347 1 15.720231169161337 12.575550275940417 12.575574307375183 0 0 0
348 1 17.29209480509537 14.147249380026079 14.147319776753644 0 0 0
404 1 11.003461231570007 11.003619505282273 17.292973614136063 0 0 0
350 1 1.5713755272833205 17.29314402045352 14.148621798130131 0 0 0
351 1 3.1433594149068704 15.720946965607697 12.576404798624466 0 0 0
352 1 4.7152440070295984 17.29311219239725 14.148562219285747 0 0 0
353 1 6.287279291797371 15.720843951084916 12.57625773299706 0 0 0
354 1 7.858950746181316 17.292972795189037 14.148313773157168 0 0 0
355 1 9.431089938062529 15.720585446608332 12.575890337067001 0 0 0
356 1 11.00235787061646 17.29271959322083 14.147719907765847 0 0 0
357 1 12.574809214850763 15.720134165356614 12.57512817906123 0 0 0
358 1 14.145469023573806 17.29206997871246 14.14643749320124 0 0 0
359 1 15.718672192855966 15.719131077940157 12.573554135666894 0 0 0
360 1 17.288515280212458 17.289974722488555 14.142676922671516 0 0 0
403 1 9.431696174067296 9.431843777565831 15.720777960875024 0 0 0
362 1 1.5713755267464067 1.5717475132638907 17.293143142304093 0 0 0
400 1 4.715396518681532 11.004319307627648 17.293085838377355 0 0 0
364 1 4.715645548757389 1.5717430509436803 17.2931406764788 0 0 0
399 1 3.143429305616323 9.432258002951531 15.720894994389484 0 0 0
366 1 7.8599526754038695 1.5717223346507923 17.293132754935787 0 0 0
367 1 9.4321284787563 -0.0003395281195342695 15.720938224980863 0 0 0
368 1 11.004303159867204 1.5716987416273722 17.293126036662315 0 0 0
398 1 1.571375527329781 11.004398613318209 17.293103345869273 0 0 0
370 1 14.148695577210015 1.5716948592378714 17.293122755610945 0 0 0
371 1 15.720890865019975 -0.000304703329831918 15.720930566631504 0 0 0
372 1 17.293105567078058 1.5717194200505065 17.293123779442695 0 0 0
402 1 7.859400408399585 11.004037675753798 17.29304386023079 0 0 0
374 1 1.5713755269243945 4.71593790828989 17.29313777757084 0 0 0
375 1 3.143505524190184 3.1438413919733694 15.720955691522786 0 0 0
376 1 4.715619415001476 4.715913785485453 17.293134470722727 0 0 0
377 1 6.287784028950825 3.143810656332409 15.720943136975123 0 0 0
378 1 7.859902262985652 4.7158350570905805 17.293118017735413 0 0 0
379 1 9.432109931240664 3.1437567860134976 15.720921849991512 0 0 0
380 1 11.00424935654694 4.715735653969402 17.2931039458068 0 0 0
381 1 12.576490420168435 3.143716181316538 15.720907061990362 0 0 0
382 1 14.14866421499263 4.715686262613821 17.293102046221737 0 0 0
383 1 15.720909525884812 3.1437247053414743 15.720906223424064 0 0 0
384 1 17.293112491192023 4.715740912601839 17.29311098629806 0 0 0
401 1 6.287540325748162 9.432122038642175 15.72084521314598 0 0 0
386 1 1.5713755270958516 7.860147134704006 17.29312223394752 0 0 0
387 1 3.1434785176515465 6.288036907498235 15.720934876808823 0 0 0
388 1 4.715536216170929 7.860097846818378 17.29311031888792 0 0 0
389 1 6.287705831077512 6.287958160056795 15.720903830235315 0 0 0
390 1 7.859726107276812 7.859924023597442 17.293081637130623 0 0 0
391 1 9.431996879175795 6.287816963526033 15.720864457268537 0 0 0
392 1 11.004004133149042 7.8596942827340035 17.29306365386668 0 0 0
393 1 12.576377812640049 6.287681851491785 15.720842529924102 0 0 0
394 1 14.148436839330188 7.859543190937696 17.293053113619564 0 0 0
395 1 15.72085244826906 6.2876817722434835 15.720858239350937 0 0 0
396 1 17.293033047039096 7.859681044229312 17.2930813536066 0 0 0
397 1 -0.0006782511905073154 9.432258002721712 15.720894994289704 0 0 0
2161 1 18.8652991304481 -0.0002985028222470879 18.865325999540936 0 0 0
1009 1 -0.000717639211604438 18.865322516239953 6.287731316469993 0 0 0
2953 1 18.8538894851421 18.859078446669496 15.712041250766967 0 0 0
871 1 9.432071213929035 18.86530148363285 -0.0008013838664126411 0 0 0
873 1 12.576413929443175 18.865273857635014 -0.0008013836517315636 0 0 0
2113 1 18.86530849603556 6.287824475069095 15.720877961885211 0 0 0
941 1 6.287745365061956 18.865316896754944 3.1434168106530116 0 0 0
2881 1 18.86332055720551 18.864240200761284 12.571265230186576 0 0 0
945 1 12.576363269404657 18.865260521217778 3.1432268428538865 0 0 0
1011 1 3.1434686928631264 18.865322516174306 6.287731316602775 0 0 0
1017 1 12.576130914673803 18.86524040277964 6.28719471780387 0 0 0
2809 1 18.864794459030442 18.864958625265057 9.429513760603546 0 0 0
37 1 -0.0007776445778375773 9.4324695937458 -0.0008013842775285687 0 0 0
225 1 12.576526806861983 -0.00029553702456406336 9.43215850381047 0 0 0
1087 1 9.431532831127916 18.86526868032839 9.431618173151183 0 0 0
2737 1 18.865131358758816 18.86514587604478 6.28656689717898 0 0 0
1089 1 12.575617274304932 18.865209385221032 9.43110640880924 0 0 0
25 1 -0.0007886920388172054 6.288193975862744 -0.000801384306015324 0 0 0
2065 1 18.865181046183924 12.57602953561745 12.575891784031063 0 0 0
2665 1 18.86524223033095 18.86520664623291 3.1430016586198093 0 0 0
2041 1 18.865310580485986 6.287865392546031 12.576446772215942 0 0 0
1231 1 9.430368968861574 18.865275923152954 15.72037906156215 0 0 0
441 1 12.576488263974127 -0.0003365844333119647 18.86532599963385 0 0 0
443 1 15.720889120700507 -0.00031888861036956736 18.865325999555786 0 0 0
223 1 9.432170397118929 -0.00032279757731523516 9.432188980943376 0 0 0
221 1 6.287840365402101 -0.0003387366891672009 9.43222166634233 0 0 0
451 1 9.432106174185947 3.143749211983715 18.865325999861206 0 0 0
363 1 3.143509954935501 -0.00034224212358680006 15.720961274903065 0 0 0
453 1 12.576484739817346 3.1437041375247086 18.865325999797207 0 0 0
455 1 15.72090183470733 3.143707901278215 18.865325999749054 0 0 0
1873 1 18.865310036953264 -0.00028260098099781584 6.287775629776205 0 0 0
461 1 6.287704179218647 6.287952146126146 18.865325999892164 0 0 0
463 1 9.431980186217082 6.287796060634487 18.865325999835157 0 0 0
465 1 12.576352147843581 6.287660085540771 18.86532599983801 0 0 0
467 1 15.720831562955752 6.287652185100233 18.86532599989276 0 0 0
471 1 3.1434214404563203 9.432247752420853 18.86532599989011 0 0 0
473 1 6.287513979791866 9.432099964615208 18.865325999805147 0 0 0
475 1 9.431651441110045 9.431805467391746 18.865325999854594 0 0 0
291 1 3.1435178050438575 -0.0003425841979520783 12.576600313054227 0 0 0
481 1 -0.0005957855122267589 12.5765270012055 18.86532599980047 0 0 0