ITEM: TIMESTEP
196
ITEM: NUMBER OF ATOMS
3457
ITEM: BOX BOUNDS pp pp pp
-8.0223460588888906e-04 3.7731454234605891e+01
-3.4909171071261625e-04 3.7731001091710681e+01
-8.0189309647826930e-04 3.7731453893096457e+01
ITEM: ATOMS id x y z
2319 22.0117 18.8642 12.5711
2 1.57138 1.57177 1.57134
2317 18.8633 18.8642 12.5711
4 4.71567 1.57177 1.57134
5 6.28782 -0.00031412 -0.000801893
6 7.85998 1.57178 1.57133
713 25.1565 15.7191 12.5734
8 11.0043 1.57179 1.57132
711 22.0101 15.7203 12.5748
10 14.1487 1.57179 1.57131
709 18.8649 15.7203 12.5748
12 17.2931 1.57179 1.57131
707 15.7185 15.7191 12.5734
14 20.4375 1.5718 1.57131
695 34.5877 12.5763 12.5762
16 23.5819 1.57179 1.57131
693 31.4438 12.5759 12.5759
18 26.7263 1.57179 1.57131
691 28.2999 12.5754 12.5753
20 29.8707 1.57179 1.57132
689 25.1549 12.5756 12.5755
22 33.015 1.57178 1.57133
23 34.5872 -0.00031412 -0.000801893
24 36.1593 1.57177 1.57134
25 -0.000767093 3.14388 -0.000801893
26 1.57138 4.71598 1.57133
27 3.14352 3.14388 -0.000801893
28 4.71565 4.71597 1.57133
29 6.28782 3.14387 -0.000801893
30 7.85997 4.71595 1.57132
31 9.43215 3.14386 -0.000801893
32 11.0043 4.71593 1.57131
33 12.5765 3.14385 -0.000801893
34 14.1487 4.71592 1.57131
35 15.7209 3.14385 -0.000801893
36 17.2931 4.71592 1.57131
37 18.8653 3.14385 -0.000801893
38 20.4375 4.71591 1.57132
39 22.0097 3.14385 -0.000801893
40 23.5819 4.71592 1.57131
41 25.1541 3.14385 -0.000801893
42 26.7263 4.71592 1.57131
43 28.2985 3.14385 -0.000801893
44 29.8707 4.71593 1.57131
45 31.4429 3.14386 -0.000801893
46 33.015 4.71595 1.57132
47 34.5872 3.14387 -0.000801893
48 36.1594 4.71597 1.57133
49 -0.000755635 6.2881 -0.000801893
50 1.57138 7.86022 1.57131
51 3.14351 6.2881 -0.000801893
52 4.71562 7.86021 1.57131
53 6.28779 6.28807 -0.000801893
54 7.85992 7.86016 1.5713
55 9.43213 6.28804 -0.000801893
56 11.0043 7.86012 1.5713
57 12.5765 6.28801 -0.000801893
58 14.1487 7.86009 1.5713
59 15.7209 6.288 -0.000801893
60 17.2931 7.86008 1.57131
61 18.8653 6.28799 -0.000801893
62 20.4375 7.86008 1.57131
63 22.0097 6.28799 -0.000801893
64 23.5819 7.86008 1.57131
65 25.1541 6.288 -0.000801893
66 26.7263 7.86009 1.5713
67 28.2985 6.28801 -0.000801893
68 29.8707 7.86012 1.5713
69 31.4429 6.28804 -0.000801893
70 33.0151 7.86016 1.5713
71 34.5872 6.28807 -0.000801893
72 36.1594 7.86021 1.57131
73 -0.000736913 9.43236 -0.000801893
74 1.57138 11.0045 1.57129
75 3.14349 9.43236 -0.000801893
76 4.71559 11.0045 1.57129
77 6.28775 9.43232 -0.000801893
78 7.85987 11.0044 1.57128
79 9.43207 9.43227 -0.000801893
80 11.0042 11.0044 1.57127
81 12.5765 9.43222 -0.000801893
82 14.1486 11.0043 1.57127
83 15.7209 9.43219 -0.000801893
84 17.2931 11.0043 1.57128
85 18.8653 9.43218 -0.000801893
86 20.4375 11.0043 1.57129
87 22.0097 9.43218 -0.000801893
88 23.5819 11.0043 1.57128
89 25.1541 9.43219 -0.000801893
90 26.7264 11.0043 1.57127
91 28.2985 9.43222 -0.000801893
92 29.8708 11.0044 1.57127
93 31.4429 9.43227 -0.000801893
94 33.0151 11.0044 1.57128
95 34.5873 9.43232 -0.000801893
96 36.1594 11.0045 1.57129
97 -0.00072226 12.5767 -0.000801893
98 1.57138 14.1488 1.57129
99 3.14347 12.5767 -0.000801893
100 4.71557 14.1488 1.57128
101 6.2877 12.5766 -0.000801893
102 7.85982 14.1487 1.57127
103 9.43201 12.5766 -0.000801893
104 11.0042 14.1487 1.57124
105 12.5764 12.5765 -0.000801893
106 14.1486 14.1486 1.57122
107 15.7208 12.5764 -0.000801892
108 17.293 14.1486 1.57122
109 18.8653 12.5764 -0.000801892
110 20.4375 14.1486 1.57122
111 22.0097 12.5764 -0.000801892
112 23.582 14.1486 1.57122
113 25.1542 12.5764 -0.000801892
114 26.7264 14.1486 1.57122
115 28.2986 12.5765 -0.000801893
116 29.8709 14.1487 1.57124
117 31.443 12.5766 -0.000801893
118 33.0152 14.1487 1.57127
119 34.5873 12.5766 -0.000801893
120 36.1594 14.1488 1.57128
2311 9.43085 18.8653 12.5757
122 1.57138 17.2931 1.57128
2313 12.5745 18.8651 12.5749
124 4.71555 17.2931 1.57128
125 6.28767 15.7209 -0.000801893
126 7.85979 17.2931 1.57126
127 9.43196 15.7209 -0.000801893
128 11.0041 17.293 1.57122
129 12.5763 15.7208 -0.000801892
130 14.1485 17.293 1.57117
131 15.7208 15.7208 -0.000801892
132 17.293 17.293 1.57114
683 15.7201 12.5756 12.5755
134 20.4375 17.293 1.57113
2181 31.4436 18.8653 9.43143
136 23.582 17.293 1.57114
137 25.1542 15.7208 -0.000801892
138 26.7265 17.293 1.57117
139 28.2987 15.7208 -0.000801892
140 29.8709 17.293 1.57122
141 31.443 15.7209 -0.000801893
142 33.0152 17.2931 1.57126
143 34.5873 15.7209 -0.000801893
144 36.1595 17.2931 1.57128
145 -0.00076277 -0.000330223 3.14349
146 1.57138 1.57176 4.71564
147 3.14351 -0.000330222 3.14349
148 4.71565 1.57176 4.71563
149 6.28781 -0.000316512 3.14347
150 7.85996 1.57177 4.7156
151 9.43214 -0.00029437 3.14345
152 11.0043 1.57178 4.71558
153 12.5765 -0.000270931 3.14344
154 14.1487 1.57179 4.71557
155 15.7209 -0.000254007 3.14342
156 17.2931 1.5718 4.71556
157 18.8653 -0.000251118 3.14342
158 20.4375 1.57181 4.71556
159 22.0097 -0.000251118 3.14342
160 23.5819 1.5718 4.71556
161 25.1541 -0.000254007 3.14342
162 26.7263 1.57179 4.71557
163 28.2985 -0.000270932 3.14344
164 29.8707 1.57178 4.71558
165 31.4429 -0.00029437 3.14345
166 33.015 1.57177 4.7156
167 34.5872 -0.000316512 3.14347
168 36.1594 1.57176 4.71563
169 -0.000763683 3.14386 3.14348
170 1.57138 4.71595 4.71561
171 3.14351 3.14386 3.14348
172 4.71564 4.71594 4.7156
173 6.28781 3.14386 3.14346
174 7.85995 4.71592 4.71557
175 9.43214 3.14385 3.14345
176 11.0043 4.71591 4.71556
177 12.5765 3.14385 3.14343
178 14.1487 4.71591 4.71555
179 15.7209 3.14386 3.14343
180 17.2931 4.71592 4.71556
181 18.8653 3.14385 3.14343
182 20.4375 4.71593 4.71557
183 22.0097 3.14385 3.14343
184 23.5819 4.71592 4.71556
185 25.1541 3.14386 3.14343
186 26.7263 4.71591 4.71555
187 28.2985 3.14385 3.14343
188 29.8707 4.71591 4.71556
189 31.4429 3.14385 3.14345
190 33.0151 4.71592 4.71557
191 34.5872 3.14386 3.14346
192 36.1594 4.71594 4.7156
193 -0.000751155 6.28808 3.14344
194 1.57138 7.86018 4.71556
195 3.1435 6.28808 3.14344
196 4.71561 7.86016 4.71554
197 6.28778 6.28805 3.14343
198 7.85989 7.86011 4.71552
199 9.43211 6.28802 3.14342
200 11.0043 7.86007 4.7155
201 12.5765 6.28799 3.14342
202 14.1487 7.86005 4.71551
203 15.7209 6.28799 3.14342
204 17.2931 7.86005 4.71554
205 18.8653 6.28799 3.14344
206 20.4375 7.86006 4.71556
207 22.0097 6.28799 3.14344
208 23.5819 7.86005 4.71554
209 25.1541 6.28799 3.14342
210 26.7263 7.86005 4.71551
211 28.2985 6.28799 3.14342
212 29.8707 7.86007 4.7155
213 31.4429 6.28802 3.14342
214 33.0151 7.86011 4.71552
215 34.5872 6.28805 3.14343
216 36.1594 7.86016 4.71554
217 -0.000735211 9.43234 3.14341
218 1.57138 11.0045 4.71551
219 3.14349 9.43234 3.14341
220 4.71558 11.0044 4.71549
221 6.28773 9.4323 3.14339
222 7.85983 11.0044 4.71545
223 9.43205 9.43223 3.14337
224 11.0042 11.0043 4.7154
225 12.5764 9.43219 3.14337
226 14.1486 11.0042 4.71541
227 15.7209 9.43216 3.14339
228 17.293 11.0042 4.71544
229 18.8653 9.43217 3.14341
230 20.4375 11.0042 4.71545
231 22.0097 9.43217 3.14341
232 23.582 11.0042 4.71544
233 25.1541 9.43216 3.14339
234 26.7264 11.0042 4.71541
235 28.2986 9.43219 3.14337
236 29.8709 11.0043 4.7154
237 31.443 9.43223 3.14337
238 33.0152 11.0044 4.71545
239 34.5873 9.4323 3.14339
240 36.1594 11.0044 4.71549
241 -0.000718585 12.5766 3.14338
242 1.57138 14.1488 4.71548
243 3.14347 12.5766 3.14338
244 4.71555 14.1488 4.71546
245 6.28769 12.5766 3.14336
246 7.85976 14.1487 4.71541
247 9.43198 12.5765 3.14333
248 11.004 14.1486 4.71531
249 12.5764 12.5764 3.14329
250 14.1484 14.1485 4.71521
251 15.7208 12.5764 3.14329
252 17.293 14.1485 4.71522
253 18.8653 12.5764 3.14332
254 20.4375 14.1485 4.71523
255 22.0097 12.5764 3.14332
256 23.582 14.1485 4.71522
257 25.1542 12.5764 3.14329
258 26.7266 14.1485 4.71521
259 28.2987 12.5764 3.14329
260 29.871 14.1486 4.71531
261 31.443 12.5765 3.14333
262 33.0152 14.1487 4.71541
263 34.5873 12.5766 3.14336
264 36.1595 14.1488 4.71546
265 -0.000711403 15.721 3.14337
266 1.57138 17.2931 4.71548
267 3.14346 15.721 3.14337
268 4.71553 17.2931 4.71546
269 6.28766 15.7209 3.14335
270 7.85971 17.2931 4.71538
271 9.43192 15.7209 3.1433
272 11.004 17.293 4.71524
273 12.5763 15.7208 3.14321
274 14.1483 17.293 4.71505
275 15.7207 15.7207 3.14314
276 17.2929 17.2929 4.7149
277 18.8652 15.7207 3.14314
278 20.4375 17.2929 4.71488
279 22.0098 15.7207 3.14314
280 23.5822 17.2929 4.7149
281 25.1543 15.7207 3.14314
282 26.7267 17.293 4.71505
283 28.2987 15.7208 3.14321
284 29.871 17.293 4.71524
285 31.4431 15.7209 3.1433
286 33.0153 17.2931 4.71538
287 34.5874 15.7209 3.14335
288 36.1595 17.2931 4.71546
681 12.5751 12.5754 12.5753
290 1.57138 1.57173 7.85997
679 9.43118 12.5759 12.5759
292 4.71563 1.57174 7.85996
293 6.28778 -0.000324304 6.28778
294 7.85993 1.57174 7.85993
295 9.43211 -0.000298381 6.28775
296 11.0043 1.57176 7.8599
297 12.5765 -0.000269541 6.28773
298 14.1487 1.57178 7.85989
299 15.7209 -0.000245431 6.28771
300 17.2931 1.57181 7.85989
301 18.8653 -0.000231137 6.28771
302 20.4375 1.57182 7.85989
303 22.0097 -0.000231137 6.28771
304 23.5819 1.57181 7.85989
305 25.1541 -0.000245432 6.28771
306 26.7263 1.57178 7.85989
307 28.2985 -0.000269541 6.28773
308 29.8707 1.57176 7.8599
309 31.4429 -0.000298381 6.28775
310 33.0151 1.57174 7.85993
311 34.5872 -0.000324304 6.28778
312 36.1594 1.57174 7.85996
313 -0.000751779 3.14383 6.28778
314 1.57138 4.7159 7.85993
315 3.1435 3.14383 6.28778
316 4.71562 4.71589 7.85991
317 6.28778 3.14383 6.28776
318 7.85991 4.71587 7.85988
319 9.43212 3.14382 6.28773
320 11.0043 4.71586 7.85985
321 12.5765 3.14383 6.28772
322 14.1487 4.71587 7.85985
323 15.7209 3.14385 6.28771
324 17.2931 4.71591 7.85988
325 18.8653 3.14387 6.28772
326 20.4375 4.71593 7.85989
327 22.0097 3.14387 6.28772
328 23.5819 4.71591 7.85988
329 25.1541 3.14385 6.28771
330 26.7263 4.71587 7.85985
331 28.2985 3.14383 6.28772
332 29.8707 4.71586 7.85985
333 31.4429 3.14382 6.28773
334 33.0151 4.71587 7.85988
335 34.5872 3.14383 6.28776
336 36.1594 4.71589 7.85991
337 -0.000741714 6.28802 6.28773
338 1.57138 7.86011 7.85985
339 3.14349 6.28802 6.28773
340 4.71558 7.86008 7.85983
341 6.28775 6.288 6.2877
342 7.85984 7.86002 7.85977
343 9.43208 6.28796 6.28767
344 11.0042 7.85995 7.85974
345 12.5765 6.28795 6.28767
346 14.1486 7.85996 7.85977
347 15.7209 6.28796 6.28768
348 17.2931 7.86001 7.85981
349 18.8653 6.28798 6.28771
350 20.4375 7.86003 7.85983
351 22.0097 6.28798 6.28771
352 23.5819 7.86001 7.85981
353 25.1541 6.28796 6.28768
354 26.7264 7.85996 7.85977
355 28.2985 6.28795 6.28767
356 29.8708 7.85995 7.85974
357 31.4429 6.28796 6.28767
358 33.0152 7.86002 7.85977
359 34.5873 6.288 6.2877
360 36.1594 7.86008 7.85983
361 -0.000722582 9.43228 6.28766
362 1.57138 11.0044 7.85979
363 3.14347 9.43228 6.28766
364 4.71553 11.0044 7.85975
365 6.2877 9.43222 6.28762
366 7.85972 11.0042 7.85966
367 9.43199 9.43213 6.28756
368 11.004 11.0041 7.85953
369 12.5764 9.43208 6.28755
370 14.1485 11.0041 7.85953
371 15.7208 9.43209 6.28759
372 17.293 11.0041 7.8596
373 18.8653 9.43211 6.28762
374 20.4375 11.0042 7.85962
375 22.0097 9.43211 6.28762
376 23.582 11.0041 7.8596
377 25.1542 9.43209 6.28759
378 26.7265 11.0041 7.85953
379 28.2986 9.43208 6.28755
380 29.871 11.0041 7.85953
381 31.443 9.43213 6.28756
382 33.0153 11.0042 7.85966
383 34.5873 9.43222 6.28762
384 36.1595 11.0044 7.85975
385 -0.000704872 12.5766 6.28761
386 1.57138 14.1487 7.85975
387 3.14346 12.5766 6.28761
388 4.71548 14.1487 7.8597
389 6.28764 12.5765 6.28756
390 7.85961 14.1486 7.85958
391 9.43187 12.5764 6.28746
392 11.0038 14.1484 7.85934
393 12.5762 12.5763 6.28733
394 14.1481 14.1483 7.85908
395 15.7207 12.5763 6.28735
396 17.2928 14.1484 7.85916
397 18.8652 12.5763 6.28739
398 20.4375 14.1484 7.8592
399 22.0098 12.5763 6.28739
400 23.5822 14.1484 7.85916
401 25.1543 12.5763 6.28735
402 26.7269 14.1483 7.85908
403 28.2988 12.5763 6.28733
404 29.8712 14.1484 7.85934
405 31.4431 12.5764 6.28746
406 33.0154 14.1486 7.85958
407 34.5874 12.5765 6.28756
408 36.1595 14.1487 7.8597
409 -0.000691095 15.7209 6.28759
410 1.57138 17.2931 7.85974
411 3.14344 15.7209 6.28759
412 4.71545 17.2931 7.85969
413 6.28758 15.7209 6.28752
414 7.85952 17.293 7.85952
415 9.43176 15.7208 6.28738
416 11.0036 17.293 7.85923
417 12.576 15.7207 6.28715
418 14.1479 17.2928 7.85881
419 15.7205 15.7206 6.28695
420 17.2926 17.2927 7.8584
421 18.8652 15.7206 6.28697
422 20.4375 17.2928 7.85845
423 22.0098 15.7206 6.28697
424 23.5824 17.2927 7.8584
425 25.1545 15.7206 6.28695
426 26.7271 17.2928 7.85881
427 28.299 15.7207 6.28715
428 29.8714 17.293 7.85923
429 31.4433 15.7208 6.28738
430 33.0155 17.293 7.85952
431 34.5874 15.7209 6.28752
432 36.1596 17.2931 7.85969
433 -0.000742842 -0.000344093 9.43216
434 1.57138 1.57171 11.0043
435 3.14349 -0.000344093 9.43216
436 4.71561 1.57171 11.0043
437 6.28776 -0.000336327 9.43214
438 7.8599 1.57171 11.0043
439 9.43208 -0.000317618 9.43211
440 11.0043 1.57172 11.0043
441 12.5765 -0.000280308 9.43209
442 14.1487 1.57176 11.0043
443 15.7209 -0.000243046 9.43208
444 17.2931 1.5718 11.0043
445 18.8653 -0.000220078 9.43207
446 20.4375 1.57182 11.0043
447 22.0097 -0.000220079 9.43207
448 23.5819 1.5718 11.0043
449 25.1541 -0.000243047 9.43208
450 26.7263 1.57176 11.0043
451 28.2985 -0.000280309 9.43209
452 29.8707 1.57172 11.0043
453 31.4429 -0.000317618 9.43211
454 33.0151 1.57171 11.0043
455 34.5872 -0.000336327 9.43214
456 36.1594 1.57171 11.0043
457 -0.000742432 3.14379 9.43213
458 1.57138 4.71585 11.0043
459 3.14349 3.14379 9.43213
460 4.7156 4.71584 11.0043
461 6.28775 3.14378 9.4321
462 7.85987 4.7158 11.0042
463 9.43208 3.14378 9.43207
464 11.0042 4.71577 11.0042
465 12.5765 3.14379 9.43206
466 14.1487 4.71581 11.0042
467 15.7209 3.14383 9.43206
468 17.2931 4.71588 11.0043
469 18.8653 3.14387 9.43208
470 20.4375 4.71592 11.0043
471 22.0097 3.14387 9.43208
472 23.5819 4.71588 11.0043
473 25.1541 3.14383 9.43206
474 26.7263 4.71581 11.0042
475 28.2985 3.14379 9.43206
476 29.8708 4.71577 11.0042
477 31.4429 3.14378 9.43207
478 33.0151 4.7158 11.0042
479 34.5873 3.14378 9.4321
480 36.1594 4.71584 11.0043
481 -0.000727393 6.28796 9.43206
482 1.57138 7.86004 11.0042
483 3.14348 6.28796 9.43206
484 4.71554 7.86 11.0042
485 6.28771 6.28792 9.43202
486 7.85976 7.8599 11.0041
487 9.43202 6.28786 9.43197
488 11.0041 7.85977 11.004
489 12.5764 6.28785 9.43197
490 14.1485 7.85981 11.0041
491 15.7209 6.2879 9.43201
492 17.293 7.85994 11.0041
493 18.8653 6.28796 9.43204
494 20.4375 7.85999 11.0042
495 22.0097 6.28796 9.43204
496 23.582 7.85994 11.0041
497 25.1541 6.2879 9.43201
498 26.7265 7.85981 11.0041
499 28.2986 6.28785 9.43197
500 29.871 7.85977 11.004
501 31.443 6.28786 9.43197
502 33.0152 7.8599 11.0041
503 34.5873 6.28792 9.43202
504 36.1595 7.86 11.0042
505 -0.000700243 9.43219 9.43198
506 1.57138 11.0043 11.0041
507 3.14345 9.43219 9.43198
508 4.71545 11.0043 11.0041
509 6.28762 9.43211 9.43191
510 7.85952 11.0041 11.0039
511 9.43184 9.43196 9.4318
512 11.0037 11.0038 11.0037
513 12.5762 9.43188 9.43176
514 14.1482 11.0038 11.0037
515 15.7207 9.43197 9.43184
516 17.2929 11.004 11.0038
517 18.8653 9.43204 9.43187
518 20.4375 11.0041 11.0039
519 22.0098 9.43204 9.43187
520 23.5821 11.004 11.0038
521 25.1543 9.43197 9.43184
522 26.7268 11.0038 11.0037
523 28.2988 9.43188 9.43176
524 29.8713 11.0038 11.0037
525 31.4432 9.43196 9.4318
526 33.0155 11.0041 11.0039
527 34.5874 9.43211 9.43191
528 36.1596 11.0043 11.0041
529 -0.000666344 12.5765 9.43191
530 1.57138 14.1487 11.0041
531 3.14342 12.5765 9.43191
532 4.71536 14.1486 11.004
533 6.2875 12.5764 9.43182
534 7.85931 14.1484 11.0038
535 9.4316 12.5762 9.43161
536 11.0033 14.1482 11.0034
537 12.5758 12.576 9.43131
538 14.1474 14.1477 11.0027
539 15.7205 12.5761 9.43139
540 17.2926 14.1481 11.0031
541 18.8652 12.5762 9.43151
542 20.4375 14.1483 11.0033
543 22.0098 12.5762 9.43151
544 23.5824 14.1481 11.0031
545 25.1545 12.5761 9.43139
546 26.7276 14.1477 11.0027
547 28.2992 12.576 9.43131
548 29.8717 14.1482 11.0034
549 31.4434 12.5762 9.43161
550 33.0157 14.1484 11.0038
551 34.5875 12.5764 9.43182
552 36.1596 14.1486 11.004
553 -0.000644683 15.7209 9.43189
554 1.57138 17.2931 11.0041
555 3.14339 15.7209 9.43189
556 4.71533 17.2931 11.004
557 6.28742 15.7208 9.43176
558 7.85921 17.293 11.0038
559 9.43143 15.7207 9.43149
560 11.0031 17.2929 11.0033
561 12.5756 15.7205 9.43105
562 14.1471 17.2926 11.0025
563 15.72 15.7203 9.43051
564 17.2917 17.2923 11.0014
565 18.8651 15.7205 9.43078
566 20.4375 17.2927 11.002
567 22.0099 15.7205 9.43078
568 23.5833 17.2923 11.0014
569 25.155 15.7203 9.43051
570 26.7279 17.2926 11.0025
571 28.2995 15.7205 9.43105
572 29.8719 17.2929 11.0033
573 31.4436 15.7207 9.43149
574 33.0158 17.293 11.0038
575 34.5876 15.7208 9.43176
576 36.1597 17.2931 11.004
2179 28.2996 18.8652 9.43093
1743 22.0098 18.8652 -0.000801892
1881 12.5762 18.8652 3.14316
1885 18.8652 18.8652 3.14293
1887 22.0098 18.8652 3.14293
1891 28.2988 18.8652 3.14316
2025 12.5759 18.8652 6.28705
2029 18.8651 18.8651 6.28639
2031 22.0099 18.8651 6.28639
2035 28.2991 18.8652 6.28705
677 6.2873 12.5763 12.5762
2167 9.43136 18.8653 9.43143
2169 12.5754 18.8652 9.43093
2173 18.8648 18.865 9.42933
2175 22.0102 18.865 9.42933
611 15.7209 3.14379 12.5765
617 25.1541 3.14379 12.5765
631 9.43196 6.28777 12.5764
635 15.7208 6.28782 12.5764
641 25.1542 6.28782 12.5764
645 31.4431 6.28777 12.5764
659 15.7206 9.43178 12.5762
665 25.1544 9.43178 12.5762
1733 6.28766 18.8653 -0.000801893
1735 9.43193 18.8653 -0.000801892
1737 12.5763 18.8652 -0.000801892
1739 15.7207 18.8652 -0.000801892
1745 25.1543 18.8652 -0.000801892
1747 28.2987 18.8652 -0.000801892
1749 31.4431 18.8653 -0.000801892
1751 34.5873 18.8653 -0.000801893
1873 -0.000710498 18.8653 3.14337
1875 3.14346 18.8653 3.14337
1877 6.28764 18.8653 3.14335
1879 9.43188 18.8653 3.14328
1883 15.7206 18.8652 3.14303
1889 25.1544 18.8652 3.14303
1893 31.4431 18.8653 3.14328
1895 34.5874 18.8653 3.14335
2017 -0.000685746 18.8653 6.2876
2019 3.14344 18.8653 6.2876
2021 6.28755 18.8653 6.28751
2023 9.43168 18.8653 6.28733
2027 15.7204 18.8652 6.28669
2033 25.1546 18.8652 6.28669
2037 31.4433 18.8653 6.28733
2039 34.5875 18.8653 6.28751
133 18.8653 15.7208 -0.000801892
135 22.0097 15.7208 -0.000801892
2171 15.7198 18.8651 9.43014
2177 25.1552 18.8651 9.43014
2325 31.4442 18.8653 12.5757
2323 28.3005 18.8651 12.5749
1741 18.8652 18.8652 -0.000801892
587 15.7209 -0.000270986 12.5765
593 25.1541 -0.000270986 12.5765
583 9.43207 -0.000343218 12.5765
585 12.5765 -0.000316143 12.5765
589 18.8653 -0.000239339 12.5765
2321 25.1567 18.8649 12.5734
2315 15.7183 18.8649 12.5734
591 22.0097 -0.000239339 12.5765
595 28.2986 -0.000316143 12.5765
597 31.4429 -0.000343218 12.5765
719 34.5878 15.7207 12.5761
601 -0.00073313 3.14376 12.5765
603 3.14348 3.14376 12.5765
605 6.28773 3.14375 12.5765
607 9.43206 3.14373 12.5765
609 12.5765 3.14374 12.5765
613 18.8653 3.14385 12.5765
615 22.0097 3.14385 12.5765
619 28.2985 3.14374 12.5765
621 31.4429 3.14373 12.5765
623 34.5873 3.14375 12.5765
625 -0.000717667 6.28791 12.5764
627 3.14347 6.28791 12.5764
629 6.28768 6.28786 12.5764
633 12.5763 6.28772 12.5763
637 18.8653 6.28793 12.5764
639 22.0097 6.28793 12.5764
643 28.2987 6.28772 12.5763
647 34.5873 6.28786 12.5764
649 -0.000672039 9.43212 12.5764
651 3.14342 9.43212 12.5764
653 6.28753 9.432 12.5763
655 9.43167 9.43179 12.5762
657 12.576 9.4316 12.5761
661 18.8652 9.432 12.5762
663 22.0098 9.432 12.5762
667 28.299 9.4316 12.5761
669 31.4433 9.43179 12.5762
671 34.5875 9.432 12.5763
673 -0.00061059 12.5764 12.5763
675 3.14336 12.5764 12.5763
685 18.8651 12.5761 12.5758
687 22.0099 12.5761 12.5758
697 -0.000575453 15.7209 12.5763
699 3.14333 15.7209 12.5763
701 6.28717 15.7207 12.5761
703 9.4309 15.7205 12.5757
705 12.5746 15.7201 12.575
715 28.3004 15.7201 12.575
717 31.4441 15.7205 12.5757
2165 6.28739 18.8653 9.43174
291 3.1435 -0.000334909 6.28781
289 -0.000753176 -0.00033491 6.28781
2183 34.5876 18.8653 9.43174
21 31.4429 -0.000291945 -0.000801893
7 9.43215 -0.000291945 -0.000801893
3 3.14352 -0.000328658 -0.000801893
1 -0.000767985 -0.000328658 -0.000801893
2327 34.5879 18.8653 12.5761
2309 6.28715 18.8653 12.5761
121 -0.00071366 15.721 -0.000801893
9 12.5765 -0.000270035 -0.000801893
11 15.7209 -0.000260325 -0.000801892
13 18.8653 -0.000254293 -0.000801892
15 22.0097 -0.000254293 -0.000801892
17 25.1541 -0.000260325 -0.000801892
19 28.2985 -0.000270035 -0.000801893
1731 3.14346 18.8653 -0.000801893
1729 -0.000707079 18.8653 -0.000801893
123 3.14346 15.721 -0.000801893
1104 36.1596 11.0042 23.5821
578 1.57138 1.5717 14.1487
1103 34.5875 9.43193 22.0099
580 4.7156 1.5717 14.1487
1102 33.0157 11.0039 23.5822
582 7.85989 1.57169 14.1487
733 18.8653 -0.000290963 15.7209
584 11.0043 1.57168 14.1487
735 22.0097 -0.000290963 15.7209
586 14.1487 1.57171 14.1487
1152 36.1598 17.293 23.5822
588 17.2931 1.57177 14.1487
1101 31.4434 9.43171 22.0099
590 20.4375 1.57179 14.1487
1100 29.8716 11.0036 23.5825
592 23.5819 1.57177 14.1487
1151 34.5881 15.7206 22.01
594 26.7263 1.57171 14.1487
1021 18.8653 -0.000290963 22.0097
596 29.8708 1.57168 14.1487
1023 22.0097 -0.000290963 22.0097
598 33.0151 1.57169 14.1487
1099 28.2992 9.4315 22.01
600 36.1594 1.5717 14.1487
2469 31.4448 18.8653 15.7203
602 1.57138 4.71582 14.1487
2467 28.3022 18.8651 15.7195
604 4.71558 4.7158 14.1487
2465 25.1606 18.8649 15.7174
606 7.85984 4.71576 14.1486
2463 22.0211 18.8591 15.7119
608 11.0042 4.71571 14.1486
2461 18.8539 18.8591 15.7119
610 14.1486 4.71573 14.1486
2459 15.7144 18.8649 15.7174
612 17.2931 4.71584 14.1487
2457 12.5728 18.8651 15.7195
614 20.4375 4.7159 14.1487
2455 9.43016 18.8653 15.7203
616 23.5819 4.71584 14.1487
2757 31.4448 18.8653 22.0104
618 26.7264 4.71573 14.1486
2599 9.42961 18.8652 18.8653
620 29.8708 4.71571 14.1486
1142 20.4375 17.2937 23.5844
622 33.0152 4.71576 14.1486
1141 18.8642 15.7191 22.0117
624 36.1594 4.7158 14.1487
1140 17.2884 17.29 23.5881
626 1.57138 7.86 14.1486
1139 15.7138 15.7152 22.0155
628 4.71551 7.85994 14.1486
1138 14.1453 17.2921 23.5843
630 7.85969 7.85981 14.1486
2755 28.3022 18.8651 22.0112
632 11.0039 7.85966 14.1485
1137 12.5727 15.7191 22.0114
634 14.1484 7.85963 14.1485
2753 25.1606 18.8649 22.0132
636 17.293 7.85987 14.1486
1136 11.0021 17.2927 23.583
638 20.4375 7.86 14.1486
1135 9.43017 15.7203 22.0104
640 23.582 7.85987 14.1486
2751 22.0211 18.8591 22.0187
642 26.7266 7.85963 14.1485
1134 7.85877 17.2929 23.5825
644 29.8711 7.85966 14.1485
2749 18.8539 18.8591 22.0187
646 33.0153 7.85981 14.1486
1133 6.2869 15.7206 22.01
648 36.1595 7.85994 14.1486
1132 4.71516 17.293 23.5822
650 1.57138 11.0043 14.1486
1131 3.14326 15.7208 22.0099
652 4.71537 11.0042 14.1485
1130 1.57138 17.2931 23.5821
654 7.85936 11.0039 14.1484
1129 -0.000504809 15.7208 22.0099
656 11.0034 11.0036 14.1482
1128 36.1598 14.1485 23.5822
658 14.1477 11.0033 14.1479
2747 15.7144 18.8649 22.0132
660 17.2928 11.0038 14.1482
1127 34.5878 12.5762 22.0099
662 20.4375 11.0041 14.1483
1126 33.0161 14.1483 23.5824
664 23.5822 11.0038 14.1482
2745 12.5728 18.8651 22.0112
666 26.7273 11.0033 14.1479
1125 31.4441 12.5758 22.0101
668 29.8716 11.0036 14.1482
1124 29.8726 14.1477 23.583
670 33.0157 11.0039 14.1484
1123 28.3002 12.5752 22.0105
672 36.1596 11.0042 14.1485
1122 26.7292 14.1463 23.5844
674 1.57138 14.1486 14.1485
1121 25.1558 12.5744 22.0109
676 4.71522 14.1485 14.1485
2743 9.43016 18.8653 22.0104
678 7.85893 14.1483 14.1482
1120 23.583 14.1473 23.5834
680 11.0024 14.1477 14.1476
1119 22.0099 12.576 22.0102
682 14.1458 14.1463 14.1463
1118 20.4375 14.1483 23.583
684 17.292 14.1473 14.1472
1117 18.8651 12.576 22.0102
686 20.4375 14.1483 14.1476
1116 17.292 14.1473 23.5834
688 23.583 14.1473 14.1472
1115 15.7193 12.5744 22.0109
690 26.7292 14.1463 14.1463
2613 31.4454 18.8652 18.8653
692 29.8726 14.1477 14.1476
2611 28.3043 18.865 18.8653
694 33.0161 14.1483 14.1482
2609 25.1723 18.8634 18.8653
696 36.1598 14.1485 14.1485
1114 14.1458 14.1463 23.5844
698 1.57138 17.2931 14.1485
1113 12.5748 12.5752 22.0105
700 4.71516 17.293 14.1484
1112 11.0024 14.1477 23.583
702 7.85877 17.2929 14.1482
1111 9.43095 12.5758 22.0101
704 11.0021 17.2927 14.1476
1110 7.85893 14.1483 23.5824
706 14.1453 17.2921 14.1463
2607 22.128 18.8253 18.8653
708 17.2884 17.29 14.1426
2605 18.747 18.8253 18.8653
710 20.4375 17.2937 14.1463
2603 15.7027 18.8634 18.8653
712 23.5866 17.29 14.1426
2601 12.5707 18.865 18.8653
714 26.7297 17.2921 14.1463
1109 6.28718 12.5762 22.0099
716 29.8729 17.2927 14.1476
1108 4.71522 14.1485 23.5822
718 33.0162 17.2929 14.1482
1107 3.14332 12.5764 22.0099
720 36.1598 17.293 14.1484
1098 26.7273 11.0033 23.5827
722 1.57138 1.5717 17.2931
1097 25.1546 9.4315 22.01
724 4.7156 1.57169 17.2931
1096 23.5822 11.0038 23.5824
726 7.85989 1.57167 17.2931
1095 22.0098 9.432 22.0099
728 11.0042 1.57166 17.2931
1150 33.0162 17.2929 23.5825
730 14.1487 1.57168 17.2931
731 15.7209 -0.000325403 15.7209
732 17.2931 1.57173 17.2931
1149 31.4448 15.7203 22.0104
734 20.4375 1.57176 17.2931
1148 29.8729 17.2927 23.583
736 23.5819 1.57173 17.2931
737 25.1541 -0.000325403 15.7209
738 26.7263 1.57168 17.2931
1147 28.3023 15.7191 22.0114
740 29.8708 1.57166 17.2931
1094 20.4375 11.0041 23.5824
742 33.0151 1.57167 17.2931
1093 18.8652 9.432 22.0099
744 36.1594 1.57169 17.2931
745 -0.000730342 3.14375 15.7209
746 1.57138 4.71581 17.2931
747 3.14348 3.14375 15.7209
748 4.71557 4.71578 17.2931
749 6.28772 3.14373 15.7209
750 7.85982 4.71572 17.2931
751 9.43204 3.1437 15.7209
752 11.0042 4.71568 17.2931
753 12.5764 3.1437 15.7209
754 14.1486 4.7157 17.2931
755 15.7209 3.14375 15.7209
756 17.2931 4.71582 17.2931
757 18.8653 3.14383 15.7209
758 20.4375 4.7159 17.2931
759 22.0097 3.14383 15.7209
760 23.5819 4.71582 17.2931
761 25.1541 3.14375 15.7209
762 26.7264 4.7157 17.2931
763 28.2986 3.1437 15.7209
764 29.8708 4.71568 17.2931
765 31.443 3.1437 15.7209
766 33.0152 4.71572 17.2931
767 34.5873 3.14373 15.7209
768 36.1594 4.71578 17.2931
769 -0.000708674 6.28788 15.7209
770 1.57138 7.85997 17.2931
771 3.14346 6.28788 15.7209
772 4.71549 7.8599 17.2931
773 6.28765 6.28781 15.7209
774 7.85964 7.85977 17.2931
775 9.4319 6.28771 15.7208
776 11.0039 7.85963 17.2931
777 12.5763 6.28765 15.7208
778 14.1483 7.85958 17.293
779 15.7208 6.28774 15.7208
780 17.293 7.85979 17.2931
781 18.8653 6.28793 15.7209
782 20.4375 7.86005 17.2931
783 22.0097 6.28793 15.7209
784 23.582 7.85979 17.2931
785 25.1542 6.28774 15.7208
786 26.7267 7.85958 17.293
787 28.2987 6.28765 15.7208
788 29.8711 7.85963 17.2931
789 31.4431 6.28771 15.7208
790 33.0154 7.85977 17.2931
791 34.5874 6.28781 15.7209
792 36.1595 7.8599 17.2931
793 -0.000653215 9.43207 15.7208
794 1.57138 11.0042 17.2931
795 3.1434 9.43207 15.7208
796 4.71534 11.0041 17.2931
797 6.28747 9.43193 15.7208
798 7.85929 11.0039 17.293
799 9.43157 9.43171 15.7207
800 11.0033 11.0036 17.2929
801 12.5758 9.4315 15.7206
802 14.1476 11.0032 17.2928
803 15.7205 9.4315 15.7206
804 17.2926 11.0034 17.2929
805 18.8652 9.432 15.7207
806 20.4375 11.0044 17.293
807 22.0098 9.432 15.7207
808 23.5824 11.0034 17.2929
809 25.1546 9.4315 15.7206
810 26.7274 11.0032 17.2928
811 28.2992 9.4315 15.7206
812 29.8717 11.0036 17.2929
813 31.4434 9.43171 15.7207
814 33.0157 11.0039 17.293
815 34.5875 9.43193 15.7208
816 36.1597 11.0041 17.2931
817 -0.00057436 12.5764 15.7208
818 1.57138 14.1486 17.2931
819 3.14332 12.5764 15.7208
820 4.71514 14.1485 17.293
821 6.28718 12.5762 15.7207
822 7.85874 14.1482 17.2929
823 9.43095 12.5758 15.7205
824 11.0021 14.1476 17.2927
825 12.5748 12.5752 15.7202
826 14.1455 14.1465 17.2923
827 15.7193 12.5744 15.7198
828 17.2904 14.145 17.292
829 18.8651 12.576 15.7204
830 20.4375 14.1493 17.293
831 22.0099 12.576 15.7204
832 23.5847 14.145 17.292
833 25.1558 12.5744 15.7198
834 26.7295 14.1465 17.2923
835 28.3002 12.5752 15.7202
836 29.8729 14.1476 17.2927
837 31.4441 12.5758 15.7205
838 33.0163 14.1482 17.2929
839 34.5878 12.5762 15.7207
840 36.1599 14.1485 17.293
841 -0.000504809 15.7208 15.7208
842 1.57138 17.2931 17.293
843 3.14326 15.7208 15.7208
844 4.71502 17.293 17.293
845 6.2869 15.7206 15.7206
846 7.85834 17.2928 17.2929
847 9.43017 15.7203 15.7203
848 11.0008 17.2924 17.2925
849 12.5727 15.7191 15.7192
850 14.1407 17.2903 17.2908
851 15.7138 15.7152 15.7152
852 17.2731 17.277 17.2785
853 18.8642 15.7191 15.719
854 20.4375 17.2947 17.2901
855 22.0108 15.7191 15.719
856 23.6019 17.277 17.2785
857 25.1613 15.7152 15.7152
858 26.7343 17.2903 17.2908
859 28.3023 15.7191 15.7192
860 29.8742 17.2924 17.2925
861 31.4448 15.7203 15.7203
862 33.0167 17.2928 17.2929
863 34.5881 15.7206 15.7206
864 36.16 17.293 17.293
1106 1.57138 14.1486 23.5821
866 1.57138 1.5717 20.4375
1105 -0.00057436 12.5764 22.0099
868 4.7156 1.57169 20.4375
1092 17.2928 11.0038 23.5824
870 7.85989 1.57167 20.4375
1091 15.7205 9.4315 22.01
872 11.0042 1.57166 20.4375
1090 14.1477 11.0033 23.5827
874 14.1487 1.57168 20.4375
1089 12.5758 9.4315 22.01
876 17.2931 1.57173 20.4375
877 18.8653 -0.000321267 18.8653
878 20.4375 1.57176 20.4375
879 22.0097 -0.000321267 18.8653
880 23.5819 1.57173 20.4375
1088 11.0034 11.0036 23.5825
882 26.7263 1.57168 20.4375
1087 9.43157 9.43171 22.0099
884 29.8708 1.57166 20.4375
1086 7.85936 11.0039 23.5822
886 33.0151 1.57167 20.4375
1085 6.28747 9.43193 22.0099
888 36.1594 1.57169 20.4375
889 -0.00073321 3.14375 18.8653
890 1.57138 4.71581 20.4375
891 3.14348 3.14375 18.8653
892 4.71557 4.71578 20.4376
893 6.28772 3.14372 18.8653
894 7.85982 4.71572 20.4376
895 9.43203 3.14368 18.8653
896 11.0042 4.71568 20.4376
897 12.5764 3.14368 18.8653
898 14.1486 4.7157 20.4376
899 15.7209 3.14373 18.8653
900 17.2931 4.71582 20.4375
901 18.8653 3.14382 18.8653
902 20.4375 4.7159 20.4375
903 22.0097 3.14382 18.8653
904 23.5819 4.71582 20.4375
905 25.1541 3.14373 18.8653
906 26.7264 4.7157 20.4376
907 28.2986 3.14368 18.8653
908 29.8708 4.71568 20.4376
909 31.443 3.14368 18.8653
910 33.0152 4.71572 20.4376
911 34.5873 3.14372 18.8653
912 36.1594 4.71578 20.4376
913 -0.00070225 6.28787 18.8653
914 1.57138 7.85997 20.4376