ITEM: TIMESTEP
0
ITEM: NUMBER OF ATOMS
75579
ITEM: BOX BOUNDS pp pp pp
-1.1164198570561297e+02 1.1164198570561297e+02
-1.0525707354342740e+02 1.0525707354342740e+02
-0.0000000000000000e+00 9.3378599607264192e+01
ITEM: ATOMS id type x y z
1 1 -57.1825 -53.9122 88.932
2 1 -57.1825 -53.9122 84.4854
3 1 -57.1825 -53.9122 80.0388
4 1 -57.1825 -53.9122 75.5922
5 1 -57.1825 -53.9122 71.1456
6 1 -57.1825 -53.9122 66.699
7 1 -57.1825 -53.9122 62.2524
8 1 -57.1825 -53.9122 57.8058
9 1 -57.1825 -53.9122 53.3592
10 1 -57.1825 -53.9122 48.9126
11 1 -57.1825 -53.9122 44.466
12 1 -57.1825 -53.9122 40.0194
13 1 -57.1825 -53.9122 35.5728
14 1 -57.1825 -53.9122 31.1262
15 1 -57.1825 -53.9122 26.6796
16 1 -57.1825 -53.9122 22.233
17 1 -57.1825 -53.9122 17.7864
18 1 -57.1825 -53.9122 13.3398
19 1 -57.1825 -53.9122 8.8932
20 1 -57.1825 -53.9122 4.4466
21 1 -57.1825 -53.9122 1.53992e-16
22 1 -57.1825 -50.0613 91.1553
23 1 -57.1825 -50.0613 86.7087
24 1 -55.3672 -51.3449 88.932
25 1 -56.2748 -52.6285 91.1553
26 1 -53.5518 -52.6285 91.1553
27 1 -57.1825 -50.0613 82.2621
28 1 -55.3672 -51.3449 84.4854
29 1 -56.2748 -52.6285 86.7087
30 1 -53.5518 -52.6285 86.7087
31 1 -54.4595 -53.9122 88.932
32 1 -51.7365 -53.9122 88.932
33 1 -57.1825 -50.0613 77.8155
34 1 -55.3672 -51.3449 80.0388
35 1 -56.2748 -52.6285 82.2621
36 1 -53.5518 -52.6285 82.2621
37 1 -54.4595 -53.9122 84.4854
38 1 -51.7365 -53.9122 84.4854
39 1 -57.1825 -50.0613 73.3689
40 1 -55.3672 -51.3449 75.5922
41 1 -56.2748 -52.6285 77.8155
42 1 -53.5518 -52.6285 77.8155
43 1 -54.4595 -53.9122 80.0388
44 1 -51.7365 -53.9122 80.0388
45 1 -57.1825 -50.0613 68.9223
46 1 -55.3672 -51.3449 71.1456
47 1 -56.2748 -52.6285 73.3689
48 1 -53.5518 -52.6285 73.3689
49 1 -54.4595 -53.9122 75.5922
50 1 -51.7365 -53.9122 75.5922
51 1 -57.1825 -50.0613 64.4757
52 1 -55.3672 -51.3449 66.699
53 1 -56.2748 -52.6285 68.9223
54 1 -53.5518 -52.6285 68.9223
55 1 -54.4595 -53.9122 71.1456
56 1 -51.7365 -53.9122 71.1456
57 1 -57.1825 -50.0613 60.0291
58 1 -55.3672 -51.3449 62.2524
59 1 -56.2748 -52.6285 64.4757
60 1 -53.5518 -52.6285 64.4757
61 1 -54.4595 -53.9122 66.699
62 1 -51.7365 -53.9122 66.699
63 1 -57.1825 -50.0613 55.5825
64 1 -55.3672 -51.3449 57.8058
65 1 -56.2748 -52.6285 60.0291
66 1 -53.5518 -52.6285 60.0291
67 1 -54.4595 -53.9122 62.2524
68 1 -51.7365 -53.9122 62.2524
69 1 -57.1825 -50.0613 51.1359
70 1 -55.3672 -51.3449 53.3592
71 1 -56.2748 -52.6285 55.5825
72 1 -53.5518 -52.6285 55.5825
73 1 -54.4595 -53.9122 57.8058
74 1 -51.7365 -53.9122 57.8058
75 1 -57.1825 -50.0613 46.6893
76 1 -55.3672 -51.3449 48.9126
77 1 -56.2748 -52.6285 51.1359
78 1 -53.5518 -52.6285 51.1359
79 1 -54.4595 -53.9122 53.3592
80 1 -51.7365 -53.9122 53.3592
81 1 -57.1825 -50.0613 42.2427
82 1 -55.3672 -51.3449 44.466
83 1 -56.2748 -52.6285 46.6893
84 1 -53.5518 -52.6285 46.6893
85 1 -54.4595 -53.9122 48.9126
86 1 -51.7365 -53.9122 48.9126
87 1 -57.1825 -50.0613 37.7961
88 1 -55.3672 -51.3449 40.0194
89 1 -56.2748 -52.6285 42.2427
90 1 -53.5518 -52.6285 42.2427
91 1 -54.4595 -53.9122 44.466
92 1 -51.7365 -53.9122 44.466
93 1 -57.1825 -50.0613 33.3495
94 1 -55.3672 -51.3449 35.5728
95 1 -56.2748 -52.6285 37.7961
96 1 -53.5518 -52.6285 37.7961
97 1 -54.4595 -53.9122 40.0194
98 1 -51.7365 -53.9122 40.0194
99 1 -57.1825 -50.0613 28.9029
100 1 -55.3672 -51.3449 31.1262
101 1 -56.2748 -52.6285 33.3495
102 1 -53.5518 -52.6285 33.3495
103 1 -54.4595 -53.9122 35.5728
104 1 -51.7365 -53.9122 35.5728
105 1 -57.1825 -50.0613 24.4563
106 1 -55.3672 -51.3449 26.6796
107 1 -56.2748 -52.6285 28.9029
108 1 -53.5518 -52.6285 28.9029
109 1 -54.4595 -53.9122 31.1262
110 1 -51.7365 -53.9122 31.1262
111 1 -57.1825 -50.0613 20.0097
112 1 -55.3672 -51.3449 22.233
113 1 -56.2748 -52.6285 24.4563
114 1 -53.5518 -52.6285 24.4563
115 1 -54.4595 -53.9122 26.6796
116 1 -51.7365 -53.9122 26.6796
117 1 -57.1825 -50.0613 15.5631
118 1 -55.3672 -51.3449 17.7864
119 1 -56.2748 -52.6285 20.0097
120 1 -53.5518 -52.6285 20.0097
121 1 -54.4595 -53.9122 22.233
122 1 -51.7365 -53.9122 22.233
123 1 -57.1825 -50.0613 11.1165
124 1 -55.3672 -51.3449 13.3398
125 1 -56.2748 -52.6285 15.5631
126 1 -53.5518 -52.6285 15.5631
127 1 -54.4595 -53.9122 17.7864
128 1 -51.7365 -53.9122 17.7864
129 1 -57.1825 -50.0613 6.6699
130 1 -55.3672 -51.3449 8.8932
131 1 -56.2748 -52.6285 11.1165
132 1 -53.5518 -52.6285 11.1165
133 1 -54.4595 -53.9122 13.3398
134 1 -51.7365 -53.9122 13.3398
135 1 -57.1825 -50.0613 2.2233
136 1 -55.3672 -51.3449 4.4466
137 1 -56.2748 -52.6285 6.6699
138 1 -53.5518 -52.6285 6.6699
139 1 -54.4595 -53.9122 8.8932
140 1 -51.7365 -53.9122 8.8932
141 1 -55.3672 -51.3449 1.53992e-16
142 1 -56.2748 -52.6285 2.2233
143 1 -53.5518 -52.6285 2.2233
144 1 -54.4595 -53.9122 4.4466
145 1 -51.7365 -53.9122 4.4466
146 1 -54.4595 -53.9122 3.54971e-16
147 1 -51.7365 -53.9122 2.95809e-16
148 1 -57.1825 -46.2104 88.932
149 1 -55.3672 -47.494 91.1553
150 1 -57.1825 -46.2104 84.4854
151 1 -55.3672 -47.494 86.7087
152 1 -56.2748 -48.7777 88.932
153 1 -53.5518 -48.7777 88.932
154 1 -54.4595 -50.0613 91.1553
155 1 -51.7365 -50.0613 91.1553
156 1 -57.1825 -46.2104 80.0388
157 1 -55.3672 -47.494 82.2621
158 1 -56.2748 -48.7777 84.4854
159 1 -53.5518 -48.7777 84.4854
160 1 -54.4595 -50.0613 86.7087
161 1 -51.7365 -50.0613 86.7087
162 1 -52.6442 -51.3449 88.932
163 1 -49.9212 -51.3449 88.932
164 1 -50.8289 -52.6285 91.1553
165 1 -48.1059 -52.6285 91.1553
166 1 -57.1825 -46.2104 75.5922
167 1 -55.3672 -47.494 77.8155
168 1 -56.2748 -48.7777 80.0388
169 1 -53.5518 -48.7777 80.0388
170 1 -54.4595 -50.0613 82.2621
171 1 -51.7365 -50.0613 82.2621
172 1 -52.6442 -51.3449 84.4854
173 1 -49.9212 -51.3449 84.4854
174 1 -50.8289 -52.6285 86.7087
175 1 -48.1059 -52.6285 86.7087
176 1 -49.0136 -53.9122 88.932
177 1 -46.2906 -53.9122 88.932
178 1 -57.1825 -46.2104 71.1456
179 1 -55.3672 -47.494 73.3689
180 1 -56.2748 -48.7777 75.5922
181 1 -53.5518 -48.7777 75.5922
182 1 -54.4595 -50.0613 77.8155
183 1 -51.7365 -50.0613 77.8155
184 1 -52.6442 -51.3449 80.0388
185 1 -49.9212 -51.3449 80.0388
186 1 -50.8289 -52.6285 82.2621
187 1 -48.1059 -52.6285 82.2621
188 1 -49.0136 -53.9122 84.4854
189 1 -46.2906 -53.9122 84.4854
190 1 -57.1825 -46.2104 66.699
191 1 -55.3672 -47.494 68.9223
192 1 -56.2748 -48.7777 71.1456
193 1 -53.5518 -48.7777 71.1456
194 1 -54.4595 -50.0613 73.3689
195 1 -51.7365 -50.0613 73.3689
196 1 -52.6442 -51.3449 75.5922
197 1 -49.9212 -51.3449 75.5922
198 1 -50.8289 -52.6285 77.8155
199 1 -48.1059 -52.6285 77.8155
200 1 -49.0136 -53.9122 80.0388
201 1 -46.2906 -53.9122 80.0388
202 1 -57.1825 -46.2104 62.2524
203 1 -55.3672 -47.494 64.4757
204 1 -56.2748 -48.7777 66.699
205 1 -53.5518 -48.7777 66.699
206 1 -54.4595 -50.0613 68.9223
207 1 -51.7365 -50.0613 68.9223
208 1 -52.6442 -51.3449 71.1456
209 1 -49.9212 -51.3449 71.1456
210 1 -50.8289 -52.6285 73.3689
211 1 -48.1059 -52.6285 73.3689
212 1 -49.0136 -53.9122 75.5922
213 1 -46.2906 -53.9122 75.5922
214 1 -57.1825 -46.2104 57.8058
215 1 -55.3672 -47.494 60.0291
216 1 -56.2748 -48.7777 62.2524
217 1 -53.5518 -48.7777 62.2524
218 1 -54.4595 -50.0613 64.4757
219 1 -51.7365 -50.0613 64.4757
220 1 -52.6442 -51.3449 66.699
221 1 -49.9212 -51.3449 66.699
222 1 -50.8289 -52.6285 68.9223
223 1 -48.1059 -52.6285 68.9223
224 1 -49.0136 -53.9122 71.1456
225 1 -46.2906 -53.9122 71.1456
226 1 -57.1825 -46.2104 53.3592
227 1 -55.3672 -47.494 55.5825
228 1 -56.2748 -48.7777 57.8058
229 1 -53.5518 -48.7777 57.8058
230 1 -54.4595 -50.0613 60.0291
231 1 -51.7365 -50.0613 60.0291
232 1 -52.6442 -51.3449 62.2524
233 1 -49.9212 -51.3449 62.2524
234 1 -50.8289 -52.6285 64.4757
235 1 -48.1059 -52.6285 64.4757
236 1 -49.0136 -53.9122 66.699
237 1 -46.2906 -53.9122 66.699
238 1 -57.1825 -46.2104 48.9126
239 1 -55.3672 -47.494 51.1359
240 1 -56.2748 -48.7777 53.3592
241 1 -53.5518 -48.7777 53.3592
242 1 -54.4595 -50.0613 55.5825
243 1 -51.7365 -50.0613 55.5825
244 1 -52.6442 -51.3449 57.8058
245 1 -49.9212 -51.3449 57.8058
246 1 -50.8289 -52.6285 60.0291
247 1 -48.1059 -52.6285 60.0291
248 1 -49.0136 -53.9122 62.2524
249 1 -46.2906 -53.9122 62.2524
250 1 -57.1825 -46.2104 44.466
251 1 -55.3672 -47.494 46.6893
252 1 -56.2748 -48.7777 48.9126
253 1 -53.5518 -48.7777 48.9126
254 1 -54.4595 -50.0613 51.1359
255 1 -51.7365 -50.0613 51.1359
256 1 -52.6442 -51.3449 53.3592
257 1 -49.9212 -51.3449 53.3592
258 1 -50.8289 -52.6285 55.5825
259 1 -48.1059 -52.6285 55.5825
260 1 -49.0136 -53.9122 57.8058
261 1 -46.2906 -53.9122 57.8058
262 1 -57.1825 -46.2104 40.0194
263 1 -55.3672 -47.494 42.2427
264 1 -56.2748 -48.7777 44.466
265 1 -53.5518 -48.7777 44.466
266 1 -54.4595 -50.0613 46.6893
267 1 -51.7365 -50.0613 46.6893
268 1 -52.6442 -51.3449 48.9126
269 1 -49.9212 -51.3449 48.9126
270 1 -50.8289 -52.6285 51.1359
271 1 -48.1059 -52.6285 51.1359
272 1 -49.0136 -53.9122 53.3592
273 1 -46.2906 -53.9122 53.3592
274 1 -57.1825 -46.2104 35.5728
275 1 -55.3672 -47.494 37.7961
276 1 -56.2748 -48.7777 40.0194
277 1 -53.5518 -48.7777 40.0194
278 1 -54.4595 -50.0613 42.2427
279 1 -51.7365 -50.0613 42.2427
280 1 -52.6442 -51.3449 44.466
281 1 -49.9212 -51.3449 44.466
282 1 -50.8289 -52.6285 46.6893
283 1 -48.1059 -52.6285 46.6893
284 1 -49.0136 -53.9122 48.9126
285 1 -46.2906 -53.9122 48.9126
286 1 -57.1825 -46.2104 31.1262
287 1 -55.3672 -47.494 33.3495
288 1 -56.2748 -48.7777 35.5728
289 1 -53.5518 -48.7777 35.5728
290 1 -54.4595 -50.0613 37.7961
291 1 -51.7365 -50.0613 37.7961
292 1 -52.6442 -51.3449 40.0194
293 1 -49.9212 -51.3449 40.0194
294 1 -50.8289 -52.6285 42.2427
295 1 -48.1059 -52.6285 42.2427
296 1 -49.0136 -53.9122 44.466
297 1 -46.2906 -53.9122 44.466
298 1 -57.1825 -46.2104 26.6796
299 1 -55.3672 -47.494 28.9029
300 1 -56.2748 -48.7777 31.1262
301 1 -53.5518 -48.7777 31.1262
302 1 -54.4595 -50.0613 33.3495
303 1 -51.7365 -50.0613 33.3495
304 1 -52.6442 -51.3449 35.5728
305 1 -49.9212 -51.3449 35.5728
306 1 -50.8289 -52.6285 37.7961
307 1 -48.1059 -52.6285 37.7961
308 1 -49.0136 -53.9122 40.0194
309 1 -46.2906 -53.9122 40.0194
310 1 -57.1825 -46.2104 22.233
311 1 -55.3672 -47.494 24.4563
312 1 -56.2748 -48.7777 26.6796
313 1 -53.5518 -48.7777 26.6796
314 1 -54.4595 -50.0613 28.9029
315 1 -51.7365 -50.0613 28.9029
316 1 -52.6442 -51.3449 31.1262
317 1 -49.9212 -51.3449 31.1262
318 1 -50.8289 -52.6285 33.3495
319 1 -48.1059 -52.6285 33.3495
320 1 -49.0136 -53.9122 35.5728
321 1 -46.2906 -53.9122 35.5728
322 1 -57.1825 -46.2104 17.7864
323 1 -55.3672 -47.494 20.0097
324 1 -56.2748 -48.7777 22.233
325 1 -53.5518 -48.7777 22.233
326 1 -54.4595 -50.0613 24.4563
327 1 -51.7365 -50.0613 24.4563
328 1 -52.6442 -51.3449 26.6796
329 1 -49.9212 -51.3449 26.6796
330 1 -50.8289 -52.6285 28.9029
331 1 -48.1059 -52.6285 28.9029
332 1 -49.0136 -53.9122 31.1262
333 1 -46.2906 -53.9122 31.1262
334 1 -57.1825 -46.2104 13.3398
335 1 -55.3672 -47.494 15.5631
336 1 -56.2748 -48.7777 17.7864
337 1 -53.5518 -48.7777 17.7864
338 1 -54.4595 -50.0613 20.0097
339 1 -51.7365 -50.0613 20.0097
340 1 -52.6442 -51.3449 22.233
341 1 -49.9212 -51.3449 22.233
342 1 -50.8289 -52.6285 24.4563
343 1 -48.1059 -52.6285 24.4563
344 1 -49.0136 -53.9122 26.6796
345 1 -46.2906 -53.9122 26.6796
346 1 -57.1825 -46.2104 8.8932
347 1 -55.3672 -47.494 11.1165
348 1 -56.2748 -48.7777 13.3398
349 1 -53.5518 -48.7777 13.3398
350 1 -54.4595 -50.0613 15.5631
351 1 -51.7365 -50.0613 15.5631
352 1 -52.6442 -51.3449 17.7864
353 1 -49.9212 -51.3449 17.7864
354 1 -50.8289 -52.6285 20.0097
355 1 -48.1059 -52.6285 20.0097
356 1 -49.0136 -53.9122 22.233
357 1 -46.2906 -53.9122 22.233
358 1 -57.1825 -46.2104 4.4466
359 1 -55.3672 -47.494 6.6699
360 1 -56.2748 -48.7777 8.8932
361 1 -53.5518 -48.7777 8.8932
362 1 -54.4595 -50.0613 11.1165
363 1 -51.7365 -50.0613 11.1165
364 1 -52.6442 -51.3449 13.3398
365 1 -49.9212 -51.3449 13.3398
366 1 -50.8289 -52.6285 15.5631
367 1 -48.1059 -52.6285 15.5631
368 1 -49.0136 -53.9122 17.7864
369 1 -46.2906 -53.9122 17.7864
370 1 -57.1825 -46.2104 7.92598e-16
371 1 -55.3672 -47.494 2.2233
372 1 -56.2748 -48.7777 4.4466
373 1 -53.5518 -48.7777 4.4466
374 1 -54.4595 -50.0613 6.6699
375 1 -51.7365 -50.0613 6.6699
376 1 -52.6442 -51.3449 8.8932
377 1 -49.9212 -51.3449 8.8932
378 1 -50.8289 -52.6285 11.1165
379 1 -48.1059 -52.6285 11.1165
380 1 -49.0136 -53.9122 13.3398
381 1 -46.2906 -53.9122 13.3398
382 1 -56.2748 -48.7777 4.73295e-16
383 1 -53.5518 -48.7777 1.53992e-16
384 1 -54.4595 -50.0613 2.2233
385 1 -51.7365 -50.0613 2.2233
386 1 -52.6442 -51.3449 4.4466
387 1 -49.9212 -51.3449 4.4466
388 1 -50.8289 -52.6285 6.6699
389 1 -48.1059 -52.6285 6.6699
390 1 -49.0136 -53.9122 8.8932
391 1 -46.2906 -53.9122 8.8932
392 1 -52.6442 -51.3449 3.54971e-16
393 1 -49.9212 -51.3449 2.95809e-16
394 1 -50.8289 -52.6285 2.2233
395 1 -48.1059 -52.6285 2.2233
396 1 -49.0136 -53.9122 4.4466
397 1 -46.2906 -53.9122 4.4466
398 1 -49.0136 -53.9122 2.36648e-16
399 1 -46.2906 -53.9122 1.77486e-16
400 1 -57.1825 -42.3596 91.1553
401 1 -57.1825 -42.3596 86.7087
402 1 -55.3672 -43.6432 88.932
403 1 -56.2748 -44.9268 91.1553
404 1 -53.5518 -44.9268 91.1553
405 1 -57.1825 -42.3596 82.2621
406 1 -55.3672 -43.6432 84.4854
407 1 -56.2748 -44.9268 86.7087
408 1 -53.5518 -44.9268 86.7087
409 1 -54.4595 -46.2104 88.932
410 1 -51.7365 -46.2104 88.932
411 1 -52.6442 -47.494 91.1553
412 1 -49.9212 -47.494 91.1553
413 1 -57.1825 -42.3596 77.8155
414 1 -55.3672 -43.6432 80.0388
415 1 -56.2748 -44.9268 82.2621
416 1 -53.5518 -44.9268 82.2621
417 1 -54.4595 -46.2104 84.4854
418 1 -51.7365 -46.2104 84.4854
419 1 -52.6442 -47.494 86.7087
420 1 -49.9212 -47.494 86.7087
421 1 -50.8289 -48.7777 88.932
422 1 -48.1059 -48.7777 88.932
423 1 -49.0136 -50.0613 91.1553
424 1 -46.2906 -50.0613 91.1553
425 1 -57.1825 -42.3596 73.3689
426 1 -55.3672 -43.6432 75.5922
427 1 -56.2748 -44.9268 77.8155
428 1 -53.5518 -44.9268 77.8155
429 1 -54.4595 -46.2104 80.0388
430 1 -51.7365 -46.2104 80.0388
431 1 -52.6442 -47.494 82.2621
432 1 -49.9212 -47.494 82.2621
433 1 -50.8289 -48.7777 84.4854
434 1 -48.1059 -48.7777 84.4854
435 1 -49.0136 -50.0613 86.7087
436 1 -46.2906 -50.0613 86.7087
437 1 -47.1982 -51.3449 88.932
438 1 -44.4753 -51.3449 88.932
439 1 -45.3829 -52.6285 91.1553
440 1 -42.6599 -52.6285 91.1553
441 1 -57.1825 -42.3596 68.9223
442 1 -55.3672 -43.6432 71.1456
443 1 -56.2748 -44.9268 73.3689
444 1 -53.5518 -44.9268 73.3689
445 1 -54.4595 -46.2104 75.5922
446 1 -51.7365 -46.2104 75.5922
447 1 -52.6442 -47.494 77.8155
448 1 -49.9212 -47.494 77.8155
449 1 -50.8289 -48.7777 80.0388
450 1 -48.1059 -48.7777 80.0388
451 1 -49.0136 -50.0613 82.2621
452 1 -46.2906 -50.0613 82.2621
453 1 -47.1982 -51.3449 84.4854
454 1 -44.4753 -51.3449 84.4854
455 1 -45.3829 -52.6285 86.7087
456 1 -42.6599 -52.6285 86.7087
457 1 -43.5676 -53.9122 88.932
458 1 -40.8446 -53.9122 88.932
459 1 -57.1825 -42.3596 64.4757
460 1 -55.3672 -43.6432 66.699
461 1 -56.2748 -44.9268 68.9223
462 1 -53.5518 -44.9268 68.9223
463 1 -54.4595 -46.2104 71.1456
464 1 -51.7365 -46.2104 71.1456
465 1 -52.6442 -47.494 73.3689
466 1 -49.9212 -47.494 73.3689
467 1 -50.8289 -48.7777 75.5922
468 1 -48.1059 -48.7777 75.5922
469 1 -49.0136 -50.0613 77.8155
470 1 -46.2906 -50.0613 77.8155
471 1 -47.1982 -51.3449 80.0388
472 1 -44.4753 -51.3449 80.0388
473 1 -45.3829 -52.6285 82.2621
474 1 -42.6599 -52.6285 82.2621
475 1 -43.5676 -53.9122 84.4854
476 1 -40.8446 -53.9122 84.4854
477 1 -57.1825 -42.3596 60.0291
478 1 -55.3672 -43.6432 62.2524
479 1 -56.2748 -44.9268 64.4757
480 1 -53.5518 -44.9268 64.4757
481 1 -54.4595 -46.2104 66.699
482 1 -51.7365 -46.2104 66.699
483 1 -52.6442 -47.494 68.9223
484 1 -49.9212 -47.494 68.9223
485 1 -50.8289 -48.7777 71.1456
486 1 -48.1059 -48.7777 71.1456
487 1 -49.0136 -50.0613 73.3689
488 1 -46.2906 -50.0613 73.3689
489 1 -47.1982 -51.3449 75.5922
490 1 -44.4753 -51.3449 75.5922
491 1 -45.3829 -52.6285 77.8155
492 1 -42.6599 -52.6285 77.8155
493 1 -43.5676 -53.9122 80.0388
494 1 -40.8446 -53.9122 80.0388
495 1 -57.1825 -42.3596 55.5825
496 1 -55.3672 -43.6432 57.8058
497 1 -56.2748 -44.9268 60.0291
498 1 -53.5518 -44.9268 60.0291
499 1 -54.4595 -46.2104 62.2524
500 1 -51.7365 -46.2104 62.2524
501 1 -52.6442 -47.494 64.4757
502 1 -49.9212 -47.494 64.4757
503 1 -50.8289 -48.7777 66.699
504 1 -48.1059 -48.7777 66.699
505 1 -49.0136 -50.0613 68.9223
506 1 -46.2906 -50.0613 68.9223
507 1 -47.1982 -51.3449 71.1456
508 1 -44.4753 -51.3449 71.1456
509 1 -45.3829 -52.6285 73.3689
510 1 -42.6599 -52.6285 73.3689
511 1 -43.5676 -53.9122 75.5922
512 1 -40.8446 -53.9122 75.5922
513 1 -57.1825 -42.3596 51.1359
514 1 -55.3672 -43.6432 53.3592
515 1 -56.2748 -44.9268 55.5825
516 1 -53.5518 -44.9268 55.5825
517 1 -54.4595 -46.2104 57.8058
518 1 -51.7365 -46.2104 57.8058
519 1 -52.6442 -47.494 60.0291
520 1 -49.9212 -47.494 60.0291
521 1 -50.8289 -48.7777 62.2524
522 1 -48.1059 -48.7777 62.2524
523 1 -49.0136 -50.0613 64.4757
524 1 -46.2906 -50.0613 64.4757
525 1 -47.1982 -51.3449 66.699
526 1 -44.4753 -51.3449 66.699
527 1 -45.3829 -52.6285 68.9223
528 1 -42.6599 -52.6285 68.9223
529 1 -43.5676 -53.9122 71.1456
530 1 -40.8446 -53.9122 71.1456
531 1 -57.1825 -42.3596 46.6893
532 1 -55.3672 -43.6432 48.9126
533 1 -56.2748 -44.9268 51.1359
534 1 -53.5518 -44.9268 51.1359
535 1 -54.4595 -46.2104 53.3592
536 1 -51.7365 -46.2104 53.3592
537 1 -52.6442 -47.494 55.5825
538 1 -49.9212 -47.494 55.5825
539 1 -50.8289 -48.7777 57.8058
540 1 -48.1059 -48.7777 57.8058
541 1 -49.0136 -50.0613 60.0291
542 1 -46.2906 -50.0613 60.0291
543 1 -47.1982 -51.3449 62.2524
544 1 -44.4753 -51.3449 62.2524
545 1 -45.3829 -52.6285 64.4757
546 1 -42.6599 -52.6285 64.4757
547 1 -43.5676 -53.9122 66.699
548 1 -40.8446 -53.9122 66.699
549 1 -57.1825 -42.3596 42.2427
550 1 -55.3672 -43.6432 44.466
551 1 -56.2748 -44.9268 46.6893
552 1 -53.5518 -44.9268 46.6893
553 1 -54.4595 -46.2104 48.9126
554 1 -51.7365 -46.2104 48.9126
555 1 -52.6442 -47.494 51.1359
556 1 -49.9212 -47.494 51.1359
557 1 -50.8289 -48.7777 53.3592
558 1 -48.1059 -48.7777 53.3592
559 1 -49.0136 -50.0613 55.5825
560 1 -46.2906 -50.0613 55.5825
561 1 -47.1982 -51.3449 57.8058
562 1 -44.4753 -51.3449 57.8058
563 1 -45.3829 -52.6285 60.0291
564 1 -42.6599 -52.6285 60.0291
565 1 -43.5676 -53.9122 62.2524
566 1 -40.8446 -53.9122 62.2524
567 1 -57.1825 -42.3596 37.7961
568 1 -55.3672 -43.6432 40.0194
569 1 -56.2748 -44.9268 42.2427
570 1 -53.5518 -44.9268 42.2427
571 1 -54.4595 -46.2104 44.466
572 1 -51.7365 -46.2104 44.466
573 1 -52.6442 -47.494 46.6893
574 1 -49.9212 -47.494 46.6893
575 1 -50.8289 -48.7777 48.9126
576 1 -48.1059 -48.7777 48.9126
577 1 -49.0136 -50.0613 51.1359
578 1 -46.2906 -50.0613 51.1359
579 1 -47.1982 -51.3449 53.3592
580 1 -44.4753 -51.3449 53.3592
581 1 -45.3829 -52.6285 55.5825
582 1 -42.6599 -52.6285 55.5825
583 1 -43.5676 -53.9122 57.8058
584 1 -40.8446 -53.9122 57.8058
585 1 -57.1825 -42.3596 33.3495
586 1 -55.3672 -43.6432 35.5728
587 1 -56.2748 -44.9268 37.7961
588 1 -53.5518 -44.9268 37.7961
589 1 -54.4595 -46.2104 40.0194
590 1 -51.7365 -46.2104 40.0194
591 1 -52.6442 -47.494 42.2427
592 1 -49.9212 -47.494 42.2427
593 1 -50.8289 -48.7777 44.466
594 1 -48.1059 -48.7777 44.466
595 1 -49.0136 -50.0613 46.6893
596 1 -46.2906 -50.0613 46.6893
597 1 -47.1982 -51.3449 48.9126
598 1 -44.4753 -51.3449 48.9126
599 1 -45.3829 -52.6285 51.1359
600 1 -42.6599 -52.6285 51.1359
601 1 -43.5676 -53.9122 53.3592
602 1 -40.8446 -53.9122 53.3592
603 1 -57.1825 -42.3596 28.9029
604 1 -55.3672 -43.6432 31.1262
605 1 -56.2748 -44.9268 33.3495
606 1 -53.5518 -44.9268 33.3495
607 1 -54.4595 -46.2104 35.5728
608 1 -51.7365 -46.2104 35.5728
609 1 -52.6442 -47.494 37.7961
610 1 -49.9212 -47.494 37.7961
611 1 -50.8289 -48.7777 40.0194
612 1 -48.1059 -48.7777 40.0194
613 1 -49.0136 -50.0613 42.2427
614 1 -46.2906 -50.0613 42.2427
615 1 -47.1982 -51.3449 44.466
616 1 -44.4753 -51.3449 44.466
617 1 -45.3829 -52.6285 46.6893
618 1 -42.6599 -52.6285 46.6893
619 1 -43.5676 -53.9122 48.9126
620 1 -40.8446 -53.9122 48.9126
621 1 -57.1825 -42.3596 24.4563
622 1 -55.3672 -43.6432 26.6796
623 1 -56.2748 -44.9268 28.9029
624 1 -53.5518 -44.9268 28.9029
625 1 -54.4595 -46.2104 31.1262
626 1 -51.7365 -46.2104 31.1262
627 1 -52.6442 -47.494 33.3495
628 1 -49.9212 -47.494 33.3495
629 1 -50.8289 -48.7777 35.5728
630 1 -48.1059 -48.7777 35.5728
631 1 -49.0136 -50.0613 37.7961
632 1 -46.2906 -50.0613 37.7961
633 1 -47.1982 -51.3449 40.0194
634 1 -44.4753 -51.3449 40.0194
635 1 -45.3829 -52.6285 42.2427
636 1 -42.6599 -52.6285 42.2427
637 1 -43.5676 -53.9122 44.466
638 1 -40.8446 -53.9122 44.466
639 1 -57.1825 -42.3596 20.0097
640 1 -55.3672 -43.6432 22.233
641 1 -56.2748 -44.9268 24.4563
642 1 -53.5518 -44.9268 24.4563
643 1 -54.4595 -46.2104 26.6796
644 1 -51.7365 -46.2104 26.6796
645 1 -52.6442 -47.494 28.9029
646 1 -49.9212 -47.494 28.9029
647 1 -50.8289 -48.7777 31.1262
648 1 -48.1059 -48.7777 31.1262
649 1 -49.0136 -50.0613 33.3495
650 1 -46.2906 -50.0613 33.3495
651 1 -47.1982 -51.3449 35.5728
652 1 -44.4753 -51.3449 35.5728
653 1 -45.3829 -52.6285 37.7961
654 1 -42.6599 -52.6285 37.7961
655 1 -43.5676 -53.9122 40.0194
656 1 -40.8446 -53.9122 40.0194
657 1 -57.1825 -42.3596 15.5631
658 1 -55.3672 -43.6432 17.7864
659 1 -56.2748 -44.9268 20.0097
660 1 -53.5518 -44.9268 20.0097
661 1 -54.4595 -46.2104 22.233
662 1 -51.7365 -46.2104 22.233
663 1 -52.6442 -47.494 24.4563
664 1 -49.9212 -47.494 24.4563
665 1 -50.8289 -48.7777 26.6796
666 1 -48.1059 -48.7777 26.6796
667 1 -49.0136 -50.0613 28.9029
668 1 -46.2906 -50.0613 28.9029
669 1 -47.1982 -51.3449 31.1262
670 1 -44.4753 -51.3449 31.1262
671 1 -45.3829 -52.6285 33.3495
672 1 -42.6599 -52.6285 33.3495
673 1 -43.5676 -53.9122 35.5728
674 1 -40.8446 -53.9122 35.5728
675 1 -57.1825 -42.3596 11.1165
676 1 -55.3672 -43.6432 13.3398
677 1 -56.2748 -44.9268 15.5631
678 1 -53.5518 -44.9268 15.5631
679 1 -54.4595 -46.2104 17.7864
680 1 -51.7365 -46.2104 17.7864
681 1 -52.6442 -47.494 20.0097
682 1 -49.9212 -47.494 20.0097
683 1 -50.8289 -48.7777 22.233
684 1 -48.1059 -48.7777 22.233
685 1 -49.0136 -50.0613 24.4563
686 1 -46.2906 -50.0613 24.4563
687 1 -47.1982 -51.3449 26.6796
688 1 -44.4753 -51.3449 26.6796
689 1 -45.3829 -52.6285 28.9029
690 1 -42.6599 -52.6285 28.9029
691 1 -43.5676 -53.9122 31.1262
692 1 -40.8446 -53.9122 31.1262
693 1 -57.1825 -42.3596 6.6699
694 1 -55.3672 -43.6432 8.8932
695 1 -56.2748 -44.9268 11.1165
696 1 -53.5518 -44.9268 11.1165
697 1 -54.4595 -46.2104 13.3398
698 1 -51.7365 -46.2104 13.3398
699 1 -52.6442 -47.494 15.5631
700 1 -49.9212 -47.494 15.5631
701 1 -50.8289 -48.7777 17.7864
702 1 -48.1059 -48.7777 17.7864
703 1 -49.0136 -50.0613 20.0097
704 1 -46.2906 -50.0613 20.0097
705 1 -47.1982 -51.3449 22.233
706 1 -44.4753 -51.3449 22.233
707 1 -45.3829 -52.6285 24.4563
708 1 -42.6599 -52.6285 24.4563
709 1 -43.5676 -53.9122 26.6796
710 1 -40.8446 -53.9122 26.6796
711 1 -57.1825 -42.3596 2.2233
712 1 -55.3672 -43.6432 4.4466
713 1 -56.2748 -44.9268 6.6699
714 1 -53.5518 -44.9268 6.6699
715 1 -54.4595 -46.2104 8.8932
716 1 -51.7365 -46.2104 8.8932
717 1 -52.6442 -47.494 11.1165
718 1 -49.9212 -47.494 11.1165
719 1 -50.8289 -48.7777 13.3398
720 1 -48.1059 -48.7777 13.3398
721 1 -49.0136 -50.0613 15.5631
722 1 -46.2906 -50.0613 15.5631
723 1 -47.1982 -51.3449 17.7864
724 1 -44.4753 -51.3449 17.7864
725 1 -45.3829 -52.6285 20.0097
726 1 -42.6599 -52.6285 20.0097
727 1 -43.5676 -53.9122 22.233
728 1 -40.8446 -53.9122 22.233
729 1 -55.3672 -43.6432 7.92598e-16
730 1 -56.2748 -44.9268 2.2233
731 1 -53.5518 -44.9268 2.2233
732 1 -54.4595 -46.2104 4.4466
733 1 -51.7365 -46.2104 4.4466
734 1 -52.6442 -47.494 6.6699
735 1 -49.9212 -47.494 6.6699
736 1 -50.8289 -48.7777 8.8932
737 1 -48.1059 -48.7777 8.8932
738 1 -49.0136 -50.0613 11.1165
739 1 -46.2906 -50.0613 11.1165
740 1 -47.1982 -51.3449 13.3398
741 1 -44.4753 -51.3449 13.3398
742 1 -45.3829 -52.6285 15.5631
743 1 -42.6599 -52.6285 15.5631
744 1 -43.5676 -53.9122 17.7864
745 1 -40.8446 -53.9122 17.7864
746 1 -54.4595 -46.2104 4.73295e-16
747 1 -51.7365 -46.2104 1.53992e-16
748 1 -52.6442 -47.494 2.2233
749 1 -49.9212 -47.494 2.2233
750 1 -50.8289 -48.7777 4.4466
751 1 -48.1059 -48.7777 4.4466
752 1 -49.0136 -50.0613 6.6699
753 1 -46.2906 -50.0613 6.6699
754 1 -47.1982 -51.3449 8.8932
755 1 -44.4753 -51.3449 8.8932
756 1 -45.3829 -52.6285 11.1165
757 1 -42.6599 -52.6285 11.1165
758 1 -43.5676 -53.9122 13.3398
759 1 -40.8446 -53.9122 13.3398
760 1 -50.8289 -48.7777 3.54971e-16
761 1 -48.1059 -48.7777 2.95809e-16
762 1 -49.0136 -50.0613 2.2233
763 1 -46.2906 -50.0613 2.2233
764 1 -47.1982 -51.3449 4.4466
765 1 -44.4753 -51.3449 4.4466
766 1 -45.3829 -52.6285 6.6699
767 1 -42.6599 -52.6285 6.6699
768 1 -43.5676 -53.9122 8.8932
769 1 -40.8446 -53.9122 8.8932
770 1 -47.1982 -51.3449 2.36648e-16
771 1 -44.4753 -51.3449 1.77486e-16
772 1 -45.3829 -52.6285 2.2233
773 1 -42.6599 -52.6285 2.2233
774 1 -43.5676 -53.9122 4.4466
775 1 -40.8446 -53.9122 4.4466
776 1 -43.5676 -53.9122 1.18324e-16
777 1 -40.8446 -53.9122 5.91619e-17
778 1 -57.1825 -38.5087 88.932
779 1 -55.3672 -39.7923 91.1553
780 1 -57.1825 -38.5087 84.4854
781 1 -55.3672 -39.7923 86.7087
782 1 -56.2748 -41.0759 88.932
783 1 -53.5518 -41.0759 88.932
784 1 -54.4595 -42.3596 91.1553
785 1 -51.7365 -42.3596 91.1553
786 1 -57.1825 -38.5087 80.0388
787 1 -55.3672 -39.7923 82.2621
788 1 -56.2748 -41.0759 84.4854
789 1 -53.5518 -41.0759 84.4854
790 1 -54.4595 -42.3596 86.7087
791 1 -51.7365 -42.3596 86.7087
792 1 -52.6442 -43.6432 88.932
793 1 -49.9212 -43.6432 88.932
794 1 -50.8289 -44.9268 91.1553
795 1 -48.1059 -44.9268 91.1553
796 1 -57.1825 -38.5087 75.5922
797 1 -55.3672 -39.7923 77.8155
798 1 -56.2748 -41.0759 80.0388
799 1 -53.5518 -41.0759 80.0388
800 1 -54.4595 -42.3596 82.2621
801 1 -51.7365 -42.3596 82.2621
802 1 -52.6442 -43.6432 84.4854
803 1 -49.9212 -43.6432 84.4854
804 1 -50.8289 -44.9268 86.7087
805 1 -48.1059 -44.9268 86.7087
806 1 -49.0136 -46.2104 88.932
807 1 -46.2906 -46.2104 88.932
808 1 -47.1982 -47.494 91.1553
809 1 -44.4753 -47.494 91.1553
810 1 -57.1825 -38.5087 71.1456
811 1 -55.3672 -39.7923 73.3689
812 1 -56.2748 -41.0759 75.5922
813 1 -53.5518 -41.0759 75.5922
814 1 -54.4595 -42.3596 77.8155
815 1 -51.7365 -42.3596 77.8155
816 1 -52.6442 -43.6432 80.0388
817 1 -49.9212 -43.6432 80.0388
818 1 -50.8289 -44.9268 82.2621
819 1 -48.1059 -44.9268 82.2621
820 1 -49.0136 -46.2104 84.4854
821 1 -46.2906 -46.2104 84.4854
822 1 -47.1982 -47.494 86.7087
823 1 -44.4753 -47.494 86.7087
824 1 -45.3829 -48.7777 88.932
825 1 -42.6599 -48.7777 88.932
826 1 -43.5676 -50.0613 91.1553
827 1 -40.8446 -50.0613 91.1553
828 1 -57.1825 -38.5087 66.699
829 1 -55.3672 -39.7923 68.9223
830 1 -56.2748 -41.0759 71.1456
831 1 -53.5518 -41.0759 71.1456
832 1 -54.4595 -42.3596 73.3689
833 1 -51.7365 -42.3596 73.3689
834 1 -52.6442 -43.6432 75.5922
835 1 -49.9212 -43.6432 75.5922
836 1 -50.8289 -44.9268 77.8155
837 1 -48.1059 -44.9268 77.8155
838 1 -49.0136 -46.2104 80.0388
839 1 -46.2906 -46.2104 80.0388
840 1 -47.1982 -47.494 82.2621
841 1 -44.4753 -47.494 82.2621
842 1 -45.3829 -48.7777 84.4854
843 1 -42.6599 -48.7777 84.4854
844 1 -43.5676 -50.0613 86.7087
845 1 -40.8446 -50.0613 86.7087
846 1 -41.7523 -51.3449 88.932
847 1 -39.0293 -51.3449 88.932
848 1 -39.937 -52.6285 91.1553
849 1 -57.1825 -38.5087 62.2524
850 1 -55.3672 -39.7923 64.4757
851 1 -56.2748 -41.0759 66.699
852 1 -53.5518 -41.0759 66.699
853 1 -54.4595 -42.3596 68.9223
854 1 -51.7365 -42.3596 68.9223
855 1 -52.6442 -43.6432 71.1456
856 1 -49.9212 -43.6432 71.1456
857 1 -50.8289 -44.9268 73.3689
858 1 -48.1059 -44.9268 73.3689
859 1 -49.0136 -46.2104 75.5922
860 1 -46.2906 -46.2104 75.5922
861 1 -47.1982 -47.494 77.8155
862 1 -44.4753 -47.494 77.8155
863 1 -45.3829 -48.7777 80.0388
864 1 -42.6599 -48.7777 80.0388
865 1 -43.5676 -50.0613 82.2621
866 1 -40.8446 -50.0613 82.2621
867 1 -41.7523 -51.3449 84.4854
868 1 -39.0293 -51.3449 84.4854
869 1 -39.937 -52.6285 86.7087
870 1 -38.1217 -53.9122 88.932
871 1 -57.1825 -38.5087 57.8058
872 1 -55.3672 -39.7923 60.0291
873 1 -56.2748 -41.0759 62.2524
874 1 -53.5518 -41.0759 62.2524
875 1 -54.4595 -42.3596 64.4757
876 1 -51.7365 -42.3596 64.4757
877 1 -52.6442 -43.6432 66.699
878 1 -49.9212 -43.6432 66.699
879 1 -50.8289 -44.9268 68.9223
880 1 -48.1059 -44.9268 68.9223
881 1 -49.0136 -46.2104 71.1456
882 1 -46.2906 -46.2104 71.1456
883 1 -47.1982 -47.494 73.3689
884 1 -44.4753 -47.494 73.3689
885 1 -45.3829 -48.7777 75.5922
886 1 -42.6599 -48.7777 75.5922
887 1 -43.5676 -50.0613 77.8155
888 1 -40.8446 -50.0613 77.8155
889 1 -41.7523 -51.3449 80.0388
890 1 -39.0293 -51.3449 80.0388
891 1 -39.937 -52.6285 82.2621
892 1 -38.1217 -53.9122 84.4854
893 1 -57.1825 -38.5087 53.3592
894 1 -55.3672 -39.7923 55.5825
895 1 -56.2748 -41.0759 57.8058
896 1 -53.5518 -41.0759 57.8058
897 1 -54.4595 -42.3596 60.0291
898 1 -51.7365 -42.3596 60.0291
899 1 -52.6442 -43.6432 62.2524
900 1 -49.9212 -43.6432 62.2524
901 1 -50.8289 -44.9268 64.4757
902 1 -48.1059 -44.9268 64.4757
903 1 -49.0136 -46.2104 66.699
904 1 -46.2906 -46.2104 66.699
905 1 -47.1982 -47.494 68.9223
906 1 -44.4753 -47.494 68.9223
907 1 -45.3829 -48.7777 71.1456
908 1 -42.6599 -48.7777 71.1456
909 1 -43.5676 -50.0613 73.3689
910 1 -40.8446 -50.0613 73.3689
911 1 -41.7523 -51.3449 75.5922
912 1 -39.0293 -51.3449 75.5922
913 1 -39.937 -52.6285 77.8155
914 1 -38.1217 -53.9122 80.0388
915 1 -57.1825 -38.5087 48.9126
916 1 -55.3672 -39.7923 51.1359
917 1 -56.2748 -41.0759 53.3592
918 1 -53.5518 -41.0759 53.3592
919 1 -54.4595 -42.3596 55.5825
920 1 -51.7365 -42.3596 55.5825
921 1 -52.6442 -43.6432 57.8058
922 1 -49.9212 -43.6432 57.8058
923 1 -50.8289 -44.9268 60.0291
924 1 -48.1059 -44.9268 60.0291
925 1 -49.0136 -46.2104 62.2524
926 1 -46.2906 -46.2104 62.2524
927 1 -47.1982 -47.494 64.4757
928 1 -44.4753 -47.494 64.4757
929 1 -45.3829 -48.7777 66.699
930 1 -42.6599 -48.7777 66.699
931 1 -43.5676 -50.0613 68.9223
932 1 -40.8446 -50.0613 68.9223
933 1 -41.7523 -51.3449 71.1456
934 1 -39.0293 -51.3449 71.1456
935 1 -39.937 -52.6285 73.3689
936 1 -38.1217 -53.9122 75.5922
937 1 -57.1825 -38.5087 44.466
938 1 -55.3672 -39.7923 46.6893
939 1 -56.2748 -41.0759 48.9126