ITEM: TIMESTEP
0
ITEM: NUMBER OF ATOMS
75579
ITEM: BOX BOUNDS pp pp pp
-1.1164198570561297e+02 1.1164198570561297e+02
-1.0525707354342740e+02 1.0525707354342740e+02
-0.0000000000000000e+00 9.3378599607264192e+01
ITEM: ATOMS id type x y z
1 1 -58.20408 -54.60037 88.93200 
2 1 -58.20408 -54.60037 84.48540 
3 1 -58.20408 -54.60037 80.03880 
4 1 -58.20408 -54.60037 75.59220 
5 1 -58.20408 -54.60037 71.14560 
6 1 -58.20408 -54.60037 66.69900 
7 1 -58.20408 -54.60037 62.25240 
8 1 -58.20408 -54.60037 57.80580 
9 1 -58.20408 -54.60037 53.35920 
10 1 -58.20408 -54.60037 48.91260 
11 1 -58.20408 -54.60037 44.46600 
12 1 -58.20408 -54.60037 40.01940 
13 1 -58.20408 -54.60037 35.57280 
14 1 -58.20408 -54.60037 31.12620 
15 1 -58.20408 -54.60037 26.67960 
16 1 -58.20408 -54.60037 22.23300 
17 1 -58.20408 -54.60037 17.78640 
18 1 -58.20408 -54.60037 13.33980 
19 1 -58.20408 -54.60037 8.89320 
20 1 -58.20408 -54.60037 4.44660 
21 1 -58.20408 -54.60037 0.00000 
22 1 -58.22376 -50.75693 91.15530 
23 1 -58.22376 -50.75693 86.70870 
24 1 -56.39310 -52.02970 88.93200 
25 1 -57.29849 -53.31498 91.15530 
26 1 -54.56273 -53.30243 91.15530 
27 1 -58.22376 -50.75693 82.26210 
28 1 -56.39310 -52.02970 84.48540 
29 1 -57.29849 -53.31498 86.70870 
30 1 -54.56273 -53.30243 86.70870 
31 1 -55.46859 -54.58804 88.93200 
32 1 -52.73290 -54.57527 88.93200 
33 1 -58.22376 -50.75693 77.81550 
34 1 -56.39310 -52.02970 80.03880 
35 1 -57.29849 -53.31498 82.26210 
36 1 -54.56273 -53.30243 82.26210 
37 1 -55.46859 -54.58804 84.48540 
38 1 -52.73290 -54.57527 84.48540 
39 1 -58.22376 -50.75693 73.36890 
40 1 -56.39310 -52.02970 75.59220 
41 1 -57.29849 -53.31498 77.81550 
42 1 -54.56273 -53.30243 77.81550 
43 1 -55.46859 -54.58804 80.03880 
44 1 -52.73290 -54.57527 80.03880 
45 1 -58.22376 -50.75693 68.92230 
46 1 -56.39310 -52.02970 71.14560 
47 1 -57.29849 -53.31498 73.36890 
48 1 -54.56273 -53.30243 73.36890 
49 1 -55.46859 -54.58804 75.59220 
50 1 -52.73290 -54.57527 75.59220 
51 1 -58.22376 -50.75693 64.47570 
52 1 -56.39310 -52.02970 66.69900 
53 1 -57.29849 -53.31498 68.92230 
54 1 -54.56273 -53.30243 68.92230 
55 1 -55.46859 -54.58804 71.14560 
56 1 -52.73290 -54.57527 71.14560 
57 1 -58.22376 -50.75693 60.02910 
58 1 -56.39310 -52.02970 62.25240 
59 1 -57.29849 -53.31498 64.47570 
60 1 -54.56273 -53.30243 64.47570 
61 1 -55.46859 -54.58804 66.69900 
62 1 -52.73290 -54.57527 66.69900 
63 1 -58.22376 -50.75693 55.58250 
64 1 -56.39310 -52.02970 57.80580 
65 1 -57.29849 -53.31498 60.02910 
66 1 -54.56273 -53.30243 60.02910 
67 1 -55.46859 -54.58804 62.25240 
68 1 -52.73290 -54.57527 62.25240 
69 1 -58.22376 -50.75693 51.13590 
70 1 -56.39310 -52.02970 53.35920 
71 1 -57.29849 -53.31498 55.58250 
72 1 -54.56273 -53.30243 55.58250 
73 1 -55.46859 -54.58804 57.80580 
74 1 -52.73290 -54.57527 57.80580 
75 1 -58.22376 -50.75693 46.68930 
76 1 -56.39310 -52.02970 48.91260 
77 1 -57.29849 -53.31498 51.13590 
78 1 -54.56273 -53.30243 51.13590 
79 1 -55.46859 -54.58804 53.35920 
80 1 -52.73290 -54.57527 53.35920 
81 1 -58.22376 -50.75693 42.24270 
82 1 -56.39310 -52.02970 44.46600 
83 1 -57.29849 -53.31498 46.68930 
84 1 -54.56273 -53.30243 46.68930 
85 1 -55.46859 -54.58804 48.91260 
86 1 -52.73290 -54.57527 48.91260 
87 1 -58.22376 -50.75693 37.79610 
88 1 -56.39310 -52.02970 40.01940 
89 1 -57.29849 -53.31498 42.24270 
90 1 -54.56273 -53.30243 42.24270 
91 1 -55.46859 -54.58804 44.46600 
92 1 -52.73290 -54.57527 44.46600 
93 1 -58.22376 -50.75693 33.34950 
94 1 -56.39310 -52.02970 35.57280 
95 1 -57.29849 -53.31498 37.79610 
96 1 -54.56273 -53.30243 37.79610 
97 1 -55.46859 -54.58804 40.01940 
98 1 -52.73290 -54.57527 40.01940 
99 1 -58.22376 -50.75693 28.90290 
100 1 -56.39310 -52.02970 31.12620 
101 1 -57.29849 -53.31498 33.34950 
102 1 -54.56273 -53.30243 33.34950 
103 1 -55.46859 -54.58804 35.57280 
104 1 -52.73290 -54.57527 35.57280 
105 1 -58.22376 -50.75693 24.45630 
106 1 -56.39310 -52.02970 26.67960 
107 1 -57.29849 -53.31498 28.90290 
108 1 -54.56273 -53.30243 28.90290 
109 1 -55.46859 -54.58804 31.12620 
110 1 -52.73290 -54.57527 31.12620 
111 1 -58.22376 -50.75693 20.00970 
112 1 -56.39310 -52.02970 22.23300 
113 1 -57.29849 -53.31498 24.45630 
114 1 -54.56273 -53.30243 24.45630 
115 1 -55.46859 -54.58804 26.67960 
116 1 -52.73290 -54.57527 26.67960 
117 1 -58.22376 -50.75693 15.56310 
118 1 -56.39310 -52.02970 17.78640 
119 1 -57.29849 -53.31498 20.00970 
120 1 -54.56273 -53.30243 20.00970 
121 1 -55.46859 -54.58804 22.23300 
122 1 -52.73290 -54.57527 22.23300 
123 1 -58.22376 -50.75693 11.11650 
124 1 -56.39310 -52.02970 13.33980 
125 1 -57.29849 -53.31498 15.56310 
126 1 -54.56273 -53.30243 15.56310 
127 1 -55.46859 -54.58804 17.78640 
128 1 -52.73290 -54.57527 17.78640 
129 1 -58.22376 -50.75693 6.66990 
130 1 -56.39310 -52.02970 8.89320 
131 1 -57.29849 -53.31498 11.11650 
132 1 -54.56273 -53.30243 11.11650 
133 1 -55.46859 -54.58804 13.33980 
134 1 -52.73290 -54.57527 13.33980 
135 1 -58.22376 -50.75693 2.22330 
136 1 -56.39310 -52.02970 4.44660 
137 1 -57.29849 -53.31498 6.66990 
138 1 -54.56273 -53.30243 6.66990 
139 1 -55.46859 -54.58804 8.89320 
140 1 -52.73290 -54.57527 8.89320 
141 1 -56.39310 -52.02970 0.00000 
142 1 -57.29849 -53.31498 2.22330 
143 1 -54.56273 -53.30243 2.22330 
144 1 -55.46859 -54.58804 4.44660 
145 1 -52.73290 -54.57527 4.44660 
146 1 -55.46859 -54.58804 0.00000 
147 1 -52.73290 -54.57527 0.00000 
148 1 -58.24582 -46.91427 88.93200 
149 1 -56.41400 -48.18670 91.15530 
150 1 -58.24582 -46.91427 84.48540 
151 1 -56.41400 -48.18670 86.70870 
152 1 -57.31876 -49.47186 88.93200 
153 1 -54.58244 -49.45911 88.93200 
154 1 -55.48771 -50.74441 91.15530 
155 1 -52.75138 -50.73137 91.15530 
156 1 -58.24582 -46.91427 80.03880 
157 1 -56.41400 -48.18670 82.26210 
158 1 -57.31876 -49.47186 84.48540 
159 1 -54.58244 -49.45911 84.48540 
160 1 -55.48771 -50.74441 86.70870 
161 1 -52.75138 -50.73137 86.70870 
162 1 -53.65706 -52.01690 88.93200 
163 1 -50.92079 -52.00362 88.93200 
164 1 -51.82685 -53.28940 91.15530 
165 1 -49.09069 -53.27593 91.15530 
166 1 -58.24582 -46.91427 75.59220 
167 1 -56.41400 -48.18670 77.81550 
168 1 -57.31876 -49.47186 80.03880 
169 1 -54.58244 -49.45911 80.03880 
170 1 -55.48771 -50.74441 82.26210 
171 1 -52.75138 -50.73137 82.26210 
172 1 -53.65706 -52.01690 84.48540 
173 1 -50.92079 -52.00362 84.48540 
174 1 -51.82685 -53.28940 86.70870 
175 1 -49.09069 -53.27593 86.70870 
176 1 -49.99713 -54.56207 88.93200 
177 1 -47.26114 -54.54846 88.93200 
178 1 -58.24582 -46.91427 71.14560 
179 1 -56.41400 -48.18670 73.36890 
180 1 -57.31876 -49.47186 75.59220 
181 1 -54.58244 -49.45911 75.59220 
182 1 -55.48771 -50.74441 77.81550 
183 1 -52.75138 -50.73137 77.81550 
184 1 -53.65706 -52.01690 80.03880 
185 1 -50.92079 -52.00362 80.03880 
186 1 -51.82685 -53.28940 82.26210 
187 1 -49.09069 -53.27593 82.26210 
188 1 -49.99713 -54.56207 84.48540 
189 1 -47.26114 -54.54846 84.48540 
190 1 -58.24582 -46.91427 66.69900 
191 1 -56.41400 -48.18670 68.92230 
192 1 -57.31876 -49.47186 71.14560 
193 1 -54.58244 -49.45911 71.14560 
194 1 -55.48771 -50.74441 73.36890 
195 1 -52.75138 -50.73137 73.36890 
196 1 -53.65706 -52.01690 75.59220 
197 1 -50.92079 -52.00362 75.59220 
198 1 -51.82685 -53.28940 77.81550 
199 1 -49.09069 -53.27593 77.81550 
200 1 -49.99713 -54.56207 80.03880 
201 1 -47.26114 -54.54846 80.03880 
202 1 -58.24582 -46.91427 62.25240 
203 1 -56.41400 -48.18670 64.47570 
204 1 -57.31876 -49.47186 66.69900 
205 1 -54.58244 -49.45911 66.69900 
206 1 -55.48771 -50.74441 68.92230 
207 1 -52.75138 -50.73137 68.92230 
208 1 -53.65706 -52.01690 71.14560 
209 1 -50.92079 -52.00362 71.14560 
210 1 -51.82685 -53.28940 73.36890 
211 1 -49.09069 -53.27593 73.36890 
212 1 -49.99713 -54.56207 75.59220 
213 1 -47.26114 -54.54846 75.59220 
214 1 -58.24582 -46.91427 57.80580 
215 1 -56.41400 -48.18670 60.02910 
216 1 -57.31876 -49.47186 62.25240 
217 1 -54.58244 -49.45911 62.25240 
218 1 -55.48771 -50.74441 64.47570 
219 1 -52.75138 -50.73137 64.47570 
220 1 -53.65706 -52.01690 66.69900 
221 1 -50.92079 -52.00362 66.69900 
222 1 -51.82685 -53.28940 68.92230 
223 1 -49.09069 -53.27593 68.92230 
224 1 -49.99713 -54.56207 71.14560 
225 1 -47.26114 -54.54846 71.14560 
226 1 -58.24582 -46.91427 53.35920 
227 1 -56.41400 -48.18670 55.58250 
228 1 -57.31876 -49.47186 57.80580 
229 1 -54.58244 -49.45911 57.80580 
230 1 -55.48771 -50.74441 60.02910 
231 1 -52.75138 -50.73137 60.02910 
232 1 -53.65706 -52.01690 62.25240 
233 1 -50.92079 -52.00362 62.25240 
234 1 -51.82685 -53.28940 64.47570 
235 1 -49.09069 -53.27593 64.47570 
236 1 -49.99713 -54.56207 66.69900 
237 1 -47.26114 -54.54846 66.69900 
238 1 -58.24582 -46.91427 48.91260 
239 1 -56.41400 -48.18670 51.13590 
240 1 -57.31876 -49.47186 53.35920 
241 1 -54.58244 -49.45911 53.35920 
242 1 -55.48771 -50.74441 55.58250 
243 1 -52.75138 -50.73137 55.58250 
244 1 -53.65706 -52.01690 57.80580 
245 1 -50.92079 -52.00362 57.80580 
246 1 -51.82685 -53.28940 60.02910 
247 1 -49.09069 -53.27593 60.02910 
248 1 -49.99713 -54.56207 62.25240 
249 1 -47.26114 -54.54846 62.25240 
250 1 -58.24582 -46.91427 44.46600 
251 1 -56.41400 -48.18670 46.68930 
252 1 -57.31876 -49.47186 48.91260 
253 1 -54.58244 -49.45911 48.91260 
254 1 -55.48771 -50.74441 51.13590 
255 1 -52.75138 -50.73137 51.13590 
256 1 -53.65706 -52.01690 53.35920 
257 1 -50.92079 -52.00362 53.35920 
258 1 -51.82685 -53.28940 55.58250 
259 1 -49.09069 -53.27593 55.58250 
260 1 -49.99713 -54.56207 57.80580 
261 1 -47.26114 -54.54846 57.80580 
262 1 -58.24582 -46.91427 40.01940 
263 1 -56.41400 -48.18670 42.24270 
264 1 -57.31876 -49.47186 44.46600 
265 1 -54.58244 -49.45911 44.46600 
266 1 -55.48771 -50.74441 46.68930 
267 1 -52.75138 -50.73137 46.68930 
268 1 -53.65706 -52.01690 48.91260 
269 1 -50.92079 -52.00362 48.91260 
270 1 -51.82685 -53.28940 51.13590 
271 1 -49.09069 -53.27593 51.13590 
272 1 -49.99713 -54.56207 53.35920 
273 1 -47.26114 -54.54846 53.35920 
274 1 -58.24582 -46.91427 35.57280 
275 1 -56.41400 -48.18670 37.79610 
276 1 -57.31876 -49.47186 40.01940 
277 1 -54.58244 -49.45911 40.01940 
278 1 -55.48771 -50.74441 42.24270 
279 1 -52.75138 -50.73137 42.24270 
280 1 -53.65706 -52.01690 44.46600 
281 1 -50.92079 -52.00362 44.46600 
282 1 -51.82685 -53.28940 46.68930 
283 1 -49.09069 -53.27593 46.68930 
284 1 -49.99713 -54.56207 48.91260 
285 1 -47.26114 -54.54846 48.91260 
286 1 -58.24582 -46.91427 31.12620 
287 1 -56.41400 -48.18670 33.34950 
288 1 -57.31876 -49.47186 35.57280 
289 1 -54.58244 -49.45911 35.57280 
290 1 -55.48771 -50.74441 37.79610 
291 1 -52.75138 -50.73137 37.79610 
292 1 -53.65706 -52.01690 40.01940 
293 1 -50.92079 -52.00362 40.01940 
294 1 -51.82685 -53.28940 42.24270 
295 1 -49.09069 -53.27593 42.24270 
296 1 -49.99713 -54.56207 44.46600 
297 1 -47.26114 -54.54846 44.46600 
298 1 -58.24582 -46.91427 26.67960 
299 1 -56.41400 -48.18670 28.90290 
300 1 -57.31876 -49.47186 31.12620 
301 1 -54.58244 -49.45911 31.12620 
302 1 -55.48771 -50.74441 33.34950 
303 1 -52.75138 -50.73137 33.34950 
304 1 -53.65706 -52.01690 35.57280 
305 1 -50.92079 -52.00362 35.57280 
306 1 -51.82685 -53.28940 37.79610 
307 1 -49.09069 -53.27593 37.79610 
308 1 -49.99713 -54.56207 40.01940 
309 1 -47.26114 -54.54846 40.01940 
310 1 -58.24582 -46.91427 22.23300 
311 1 -56.41400 -48.18670 24.45630 
312 1 -57.31876 -49.47186 26.67960 
313 1 -54.58244 -49.45911 26.67960 
314 1 -55.48771 -50.74441 28.90290 
315 1 -52.75138 -50.73137 28.90290 
316 1 -53.65706 -52.01690 31.12620 
317 1 -50.92079 -52.00362 31.12620 
318 1 -51.82685 -53.28940 33.34950 
319 1 -49.09069 -53.27593 33.34950 
320 1 -49.99713 -54.56207 35.57280 
321 1 -47.26114 -54.54846 35.57280 
322 1 -58.24582 -46.91427 17.78640 
323 1 -56.41400 -48.18670 20.00970 
324 1 -57.31876 -49.47186 22.23300 
325 1 -54.58244 -49.45911 22.23300 
326 1 -55.48771 -50.74441 24.45630 
327 1 -52.75138 -50.73137 24.45630 
328 1 -53.65706 -52.01690 26.67960 
329 1 -50.92079 -52.00362 26.67960 
330 1 -51.82685 -53.28940 28.90290 
331 1 -49.09069 -53.27593 28.90290 
332 1 -49.99713 -54.56207 31.12620 
333 1 -47.26114 -54.54846 31.12620 
334 1 -58.24582 -46.91427 13.33980 
335 1 -56.41400 -48.18670 15.56310 
336 1 -57.31876 -49.47186 17.78640 
337 1 -54.58244 -49.45911 17.78640 
338 1 -55.48771 -50.74441 20.00970 
339 1 -52.75138 -50.73137 20.00970 
340 1 -53.65706 -52.01690 22.23300 
341 1 -50.92079 -52.00362 22.23300 
342 1 -51.82685 -53.28940 24.45630 
343 1 -49.09069 -53.27593 24.45630 
344 1 -49.99713 -54.56207 26.67960 
345 1 -47.26114 -54.54846 26.67960 
346 1 -58.24582 -46.91427 8.89320 
347 1 -56.41400 -48.18670 11.11650 
348 1 -57.31876 -49.47186 13.33980 
349 1 -54.58244 -49.45911 13.33980 
350 1 -55.48771 -50.74441 15.56310 
351 1 -52.75138 -50.73137 15.56310 
352 1 -53.65706 -52.01690 17.78640 
353 1 -50.92079 -52.00362 17.78640 
354 1 -51.82685 -53.28940 20.00970 
355 1 -49.09069 -53.27593 20.00970 
356 1 -49.99713 -54.56207 22.23300 
357 1 -47.26114 -54.54846 22.23300 
358 1 -58.24582 -46.91427 4.44660 
359 1 -56.41400 -48.18670 6.66990 
360 1 -57.31876 -49.47186 8.89320 
361 1 -54.58244 -49.45911 8.89320 
362 1 -55.48771 -50.74441 11.11650 
363 1 -52.75138 -50.73137 11.11650 
364 1 -53.65706 -52.01690 13.33980 
365 1 -50.92079 -52.00362 13.33980 
366 1 -51.82685 -53.28940 15.56310 
367 1 -49.09069 -53.27593 15.56310 
368 1 -49.99713 -54.56207 17.78640 
369 1 -47.26114 -54.54846 17.78640 
370 1 -58.24582 -46.91427 0.00000 
371 1 -56.41400 -48.18670 2.22330 
372 1 -57.31876 -49.47186 4.44660 
373 1 -54.58244 -49.45911 4.44660 
374 1 -55.48771 -50.74441 6.66990 
375 1 -52.75138 -50.73137 6.66990 
376 1 -53.65706 -52.01690 8.89320 
377 1 -50.92079 -52.00362 8.89320 
378 1 -51.82685 -53.28940 11.11650 
379 1 -49.09069 -53.27593 11.11650 
380 1 -49.99713 -54.56207 13.33980 
381 1 -47.26114 -54.54846 13.33980 
382 1 -57.31876 -49.47186 0.00000 
383 1 -54.58244 -49.45911 0.00000 
384 1 -55.48771 -50.74441 2.22330 
385 1 -52.75138 -50.73137 2.22330 
386 1 -53.65706 -52.01690 4.44660 
387 1 -50.92079 -52.00362 4.44660 
388 1 -51.82685 -53.28940 6.66990 
389 1 -49.09069 -53.27593 6.66990 
390 1 -49.99713 -54.56207 8.89320 
391 1 -47.26114 -54.54846 8.89320 
392 1 -53.65706 -52.01690 0.00000 
393 1 -50.92079 -52.00362 0.00000 
394 1 -51.82685 -53.28940 2.22330 
395 1 -49.09069 -53.27593 2.22330 
396 1 -49.99713 -54.56207 4.44660 
397 1 -47.26114 -54.54846 4.44660 
398 1 -49.99713 -54.56207 0.00000 
399 1 -47.26114 -54.54846 0.00000 
400 1 -58.27053 -43.07247 91.15530 
401 1 -58.27053 -43.07247 86.70870 
402 1 -56.43752 -44.34464 88.93200 
403 1 -57.34153 -45.62945 91.15530 
404 1 -54.60471 -45.61661 91.15530 
405 1 -58.27053 -43.07247 82.26210 
406 1 -56.43752 -44.34464 84.48540 
407 1 -57.34153 -45.62945 86.70870 
408 1 -54.60471 -45.61661 86.70870 
409 1 -55.50928 -46.90165 88.93200 
410 1 -52.77236 -46.88843 88.93200 
411 1 -53.67739 -48.17372 91.15530 
412 1 -50.94044 -48.16017 91.15530 
413 1 -58.27053 -43.07247 77.81550 
414 1 -56.43752 -44.34464 80.03880 
415 1 -57.34153 -45.62945 82.26210 
416 1 -54.60471 -45.61661 82.26210 
417 1 -55.50928 -46.90165 84.48540 
418 1 -52.77236 -46.88843 84.48540 
419 1 -53.67739 -48.17372 86.70870 
420 1 -50.94044 -48.16017 86.70870 
421 1 -51.84591 -49.44582 88.93200 
422 1 -49.10900 -49.43199 88.93200 
423 1 -50.01490 -50.71782 91.15530 
424 1 -47.27811 -50.70376 91.15530 
425 1 -58.27053 -43.07247 73.36890 
426 1 -56.43752 -44.34464 75.59220 
427 1 -57.34153 -45.62945 77.81550 
428 1 -54.60471 -45.61661 77.81550 
429 1 -55.50928 -46.90165 80.03880 
430 1 -52.77236 -46.88843 80.03880 
431 1 -53.67739 -48.17372 82.26210 
432 1 -50.94044 -48.16017 82.26210 
433 1 -51.84591 -49.44582 84.48540 
434 1 -49.10900 -49.43199 84.48540 
435 1 -50.01490 -50.71782 86.70870 
436 1 -47.27811 -50.70376 86.70870 
437 1 -48.18432 -51.98986 88.93200 
438 1 -45.44780 -51.97565 88.93200 
439 1 -46.35440 -53.26203 91.15530 
440 1 -43.61802 -53.24773 91.15530 
441 1 -58.27053 -43.07247 68.92230 
442 1 -56.43752 -44.34464 71.14560 
443 1 -57.34153 -45.62945 73.36890 
444 1 -54.60471 -45.61661 73.36890 
445 1 -55.50928 -46.90165 75.59220 
446 1 -52.77236 -46.88843 75.59220 
447 1 -53.67739 -48.17372 77.81550 
448 1 -50.94044 -48.16017 77.81550 
449 1 -51.84591 -49.44582 80.03880 
450 1 -49.10900 -49.43199 80.03880 
451 1 -50.01490 -50.71782 82.26210 
452 1 -47.27811 -50.70376 82.26210 
453 1 -48.18432 -51.98986 84.48540 
454 1 -45.44780 -51.97565 84.48540 
455 1 -46.35440 -53.26203 86.70870 
456 1 -43.61802 -53.24773 86.70870 
457 1 -44.52508 -54.53449 88.93200 
458 1 -41.78901 -54.52019 88.93200 
459 1 -58.27053 -43.07247 64.47570 
460 1 -56.43752 -44.34464 66.69900 
461 1 -57.34153 -45.62945 68.92230 
462 1 -54.60471 -45.61661 68.92230 
463 1 -55.50928 -46.90165 71.14560 
464 1 -52.77236 -46.88843 71.14560 
465 1 -53.67739 -48.17372 73.36890 
466 1 -50.94044 -48.16017 73.36890 
467 1 -51.84591 -49.44582 75.59220 
468 1 -49.10900 -49.43199 75.59220 
469 1 -50.01490 -50.71782 77.81550 
470 1 -47.27811 -50.70376 77.81550 
471 1 -48.18432 -51.98986 80.03880 
472 1 -45.44780 -51.97565 80.03880 
473 1 -46.35440 -53.26203 82.26210 
474 1 -43.61802 -53.24773 82.26210 
475 1 -44.52508 -54.53449 84.48540 
476 1 -41.78901 -54.52019 84.48540 
477 1 -58.27053 -43.07247 60.02910 
478 1 -56.43752 -44.34464 62.25240 
479 1 -57.34153 -45.62945 64.47570 
480 1 -54.60471 -45.61661 64.47570 
481 1 -55.50928 -46.90165 66.69900 
482 1 -52.77236 -46.88843 66.69900 
483 1 -53.67739 -48.17372 68.92230 
484 1 -50.94044 -48.16017 68.92230 
485 1 -51.84591 -49.44582 71.14560 
486 1 -49.10900 -49.43199 71.14560 
487 1 -50.01490 -50.71782 73.36890 
488 1 -47.27811 -50.70376 73.36890 
489 1 -48.18432 -51.98986 75.59220 
490 1 -45.44780 -51.97565 75.59220 
491 1 -46.35440 -53.26203 77.81550 
492 1 -43.61802 -53.24773 77.81550 
493 1 -44.52508 -54.53449 80.03880 
494 1 -41.78901 -54.52019 80.03880 
495 1 -58.27053 -43.07247 55.58250 
496 1 -56.43752 -44.34464 57.80580 
497 1 -57.34153 -45.62945 60.02910 
498 1 -54.60471 -45.61661 60.02910 
499 1 -55.50928 -46.90165 62.25240 
500 1 -52.77236 -46.88843 62.25240 
501 1 -53.67739 -48.17372 64.47570 
502 1 -50.94044 -48.16017 64.47570 
503 1 -51.84591 -49.44582 66.69900 
504 1 -49.10900 -49.43199 66.69900 
505 1 -50.01490 -50.71782 68.92230 
506 1 -47.27811 -50.70376 68.92230 
507 1 -48.18432 -51.98986 71.14560 
508 1 -45.44780 -51.97565 71.14560 
509 1 -46.35440 -53.26203 73.36890 
510 1 -43.61802 -53.24773 73.36890 
511 1 -44.52508 -54.53449 75.59220 
512 1 -41.78901 -54.52019 75.59220 
513 1 -58.27053 -43.07247 51.13590 
514 1 -56.43752 -44.34464 53.35920 
515 1 -57.34153 -45.62945 55.58250 
516 1 -54.60471 -45.61661 55.58250 
517 1 -55.50928 -46.90165 57.80580 
518 1 -52.77236 -46.88843 57.80580 
519 1 -53.67739 -48.17372 60.02910 
520 1 -50.94044 -48.16017 60.02910 
521 1 -51.84591 -49.44582 62.25240 
522 1 -49.10900 -49.43199 62.25240 
523 1 -50.01490 -50.71782 64.47570 
524 1 -47.27811 -50.70376 64.47570 
525 1 -48.18432 -51.98986 66.69900 
526 1 -45.44780 -51.97565 66.69900 
527 1 -46.35440 -53.26203 68.92230 
528 1 -43.61802 -53.24773 68.92230 
529 1 -44.52508 -54.53449 71.14560 
530 1 -41.78901 -54.52019 71.14560 
531 1 -58.27053 -43.07247 46.68930 
532 1 -56.43752 -44.34464 48.91260 
533 1 -57.34153 -45.62945 51.13590 
534 1 -54.60471 -45.61661 51.13590 
535 1 -55.50928 -46.90165 53.35920 
536 1 -52.77236 -46.88843 53.35920 
537 1 -53.67739 -48.17372 55.58250 
538 1 -50.94044 -48.16017 55.58250 
539 1 -51.84591 -49.44582 57.80580 
540 1 -49.10900 -49.43199 57.80580 
541 1 -50.01490 -50.71782 60.02910 
542 1 -47.27811 -50.70376 60.02910 
543 1 -48.18432 -51.98986 62.25240 
544 1 -45.44780 -51.97565 62.25240 
545 1 -46.35440 -53.26203 64.47570 
546 1 -43.61802 -53.24773 64.47570 
547 1 -44.52508 -54.53449 66.69900 
548 1 -41.78901 -54.52019 66.69900 
549 1 -58.27053 -43.07247 42.24270 
550 1 -56.43752 -44.34464 44.46600 
551 1 -57.34153 -45.62945 46.68930 
552 1 -54.60471 -45.61661 46.68930 
553 1 -55.50928 -46.90165 48.91260 
554 1 -52.77236 -46.88843 48.91260 
555 1 -53.67739 -48.17372 51.13590 
556 1 -50.94044 -48.16017 51.13590 
557 1 -51.84591 -49.44582 53.35920 
558 1 -49.10900 -49.43199 53.35920 
559 1 -50.01490 -50.71782 55.58250 
560 1 -47.27811 -50.70376 55.58250 
561 1 -48.18432 -51.98986 57.80580 
562 1 -45.44780 -51.97565 57.80580 
563 1 -46.35440 -53.26203 60.02910 
564 1 -43.61802 -53.24773 60.02910 
565 1 -44.52508 -54.53449 62.25240 
566 1 -41.78901 -54.52019 62.25240 
567 1 -58.27053 -43.07247 37.79610 
568 1 -56.43752 -44.34464 40.01940 
569 1 -57.34153 -45.62945 42.24270 
570 1 -54.60471 -45.61661 42.24270 
571 1 -55.50928 -46.90165 44.46600 
572 1 -52.77236 -46.88843 44.46600 
573 1 -53.67739 -48.17372 46.68930 
574 1 -50.94044 -48.16017 46.68930 
575 1 -51.84591 -49.44582 48.91260 
576 1 -49.10900 -49.43199 48.91260 
577 1 -50.01490 -50.71782 51.13590 
578 1 -47.27811 -50.70376 51.13590 
579 1 -48.18432 -51.98986 53.35920 
580 1 -45.44780 -51.97565 53.35920 
581 1 -46.35440 -53.26203 55.58250 
582 1 -43.61802 -53.24773 55.58250 
583 1 -44.52508 -54.53449 57.80580 
584 1 -41.78901 -54.52019 57.80580 
585 1 -58.27053 -43.07247 33.34950 
586 1 -56.43752 -44.34464 35.57280 
587 1 -57.34153 -45.62945 37.79610 
588 1 -54.60471 -45.61661 37.79610 
589 1 -55.50928 -46.90165 40.01940 
590 1 -52.77236 -46.88843 40.01940 
591 1 -53.67739 -48.17372 42.24270 
592 1 -50.94044 -48.16017 42.24270 
593 1 -51.84591 -49.44582 44.46600 
594 1 -49.10900 -49.43199 44.46600 
595 1 -50.01490 -50.71782 46.68930 
596 1 -47.27811 -50.70376 46.68930 
597 1 -48.18432 -51.98986 48.91260 
598 1 -45.44780 -51.97565 48.91260 
599 1 -46.35440 -53.26203 51.13590 
600 1 -43.61802 -53.24773 51.13590 
601 1 -44.52508 -54.53449 53.35920 
602 1 -41.78901 -54.52019 53.35920 
603 1 -58.27053 -43.07247 28.90290 
604 1 -56.43752 -44.34464 31.12620 
605 1 -57.34153 -45.62945 33.34950 
606 1 -54.60471 -45.61661 33.34950 
607 1 -55.50928 -46.90165 35.57280 
608 1 -52.77236 -46.88843 35.57280 
609 1 -53.67739 -48.17372 37.79610 
610 1 -50.94044 -48.16017 37.79610 
611 1 -51.84591 -49.44582 40.01940 
612 1 -49.10900 -49.43199 40.01940 
613 1 -50.01490 -50.71782 42.24270 
614 1 -47.27811 -50.70376 42.24270 
615 1 -48.18432 -51.98986 44.46600 
616 1 -45.44780 -51.97565 44.46600 
617 1 -46.35440 -53.26203 46.68930 
618 1 -43.61802 -53.24773 46.68930 
619 1 -44.52508 -54.53449 48.91260 
620 1 -41.78901 -54.52019 48.91260 
621 1 -58.27053 -43.07247 24.45630 
622 1 -56.43752 -44.34464 26.67960 
623 1 -57.34153 -45.62945 28.90290 
624 1 -54.60471 -45.61661 28.90290 
625 1 -55.50928 -46.90165 31.12620 
626 1 -52.77236 -46.88843 31.12620 
627 1 -53.67739 -48.17372 33.34950 
628 1 -50.94044 -48.16017 33.34950 
629 1 -51.84591 -49.44582 35.57280 
630 1 -49.10900 -49.43199 35.57280 
631 1 -50.01490 -50.71782 37.79610 
632 1 -47.27811 -50.70376 37.79610 
633 1 -48.18432 -51.98986 40.01940 
634 1 -45.44780 -51.97565 40.01940 
635 1 -46.35440 -53.26203 42.24270 
636 1 -43.61802 -53.24773 42.24270 
637 1 -44.52508 -54.53449 44.46600 
638 1 -41.78901 -54.52019 44.46600 
639 1 -58.27053 -43.07247 20.00970 
640 1 -56.43752 -44.34464 22.23300 
641 1 -57.34153 -45.62945 24.45630 
642 1 -54.60471 -45.61661 24.45630 
643 1 -55.50928 -46.90165 26.67960 
644 1 -52.77236 -46.88843 26.67960 
645 1 -53.67739 -48.17372 28.90290 
646 1 -50.94044 -48.16017 28.90290 
647 1 -51.84591 -49.44582 31.12620 
648 1 -49.10900 -49.43199 31.12620 
649 1 -50.01490 -50.71782 33.34950 
650 1 -47.27811 -50.70376 33.34950 
651 1 -48.18432 -51.98986 35.57280 
652 1 -45.44780 -51.97565 35.57280 
653 1 -46.35440 -53.26203 37.79610 
654 1 -43.61802 -53.24773 37.79610 
655 1 -44.52508 -54.53449 40.01940 
656 1 -41.78901 -54.52019 40.01940 
657 1 -58.27053 -43.07247 15.56310 
658 1 -56.43752 -44.34464 17.78640 
659 1 -57.34153 -45.62945 20.00970 
660 1 -54.60471 -45.61661 20.00970 
661 1 -55.50928 -46.90165 22.23300 
662 1 -52.77236 -46.88843 22.23300 
663 1 -53.67739 -48.17372 24.45630 
664 1 -50.94044 -48.16017 24.45630 
665 1 -51.84591 -49.44582 26.67960 
666 1 -49.10900 -49.43199 26.67960 
667 1 -50.01490 -50.71782 28.90290 
668 1 -47.27811 -50.70376 28.90290 
669 1 -48.18432 -51.98986 31.12620 
670 1 -45.44780 -51.97565 31.12620 
671 1 -46.35440 -53.26203 33.34950 
672 1 -43.61802 -53.24773 33.34950 
673 1 -44.52508 -54.53449 35.57280 
674 1 -41.78901 -54.52019 35.57280 
675 1 -58.27053 -43.07247 11.11650 
676 1 -56.43752 -44.34464 13.33980 
677 1 -57.34153 -45.62945 15.56310 
678 1 -54.60471 -45.61661 15.56310 
679 1 -55.50928 -46.90165 17.78640 
680 1 -52.77236 -46.88843 17.78640 
681 1 -53.67739 -48.17372 20.00970 
682 1 -50.94044 -48.16017 20.00970 
683 1 -51.84591 -49.44582 22.23300 
684 1 -49.10900 -49.43199 22.23300 
685 1 -50.01490 -50.71782 24.45630 
686 1 -47.27811 -50.70376 24.45630 
687 1 -48.18432 -51.98986 26.67960 
688 1 -45.44780 -51.97565 26.67960 
689 1 -46.35440 -53.26203 28.90290 
690 1 -43.61802 -53.24773 28.90290 
691 1 -44.52508 -54.53449 31.12620 
692 1 -41.78901 -54.52019 31.12620 
693 1 -58.27053 -43.07247 6.66990 
694 1 -56.43752 -44.34464 8.89320 
695 1 -57.34153 -45.62945 11.11650 
696 1 -54.60471 -45.61661 11.11650 
697 1 -55.50928 -46.90165 13.33980 
698 1 -52.77236 -46.88843 13.33980 
699 1 -53.67739 -48.17372 15.56310 
700 1 -50.94044 -48.16017 15.56310 
701 1 -51.84591 -49.44582 17.78640 
702 1 -49.10900 -49.43199 17.78640 
703 1 -50.01490 -50.71782 20.00970 
704 1 -47.27811 -50.70376 20.00970 
705 1 -48.18432 -51.98986 22.23300 
706 1 -45.44780 -51.97565 22.23300 
707 1 -46.35440 -53.26203 24.45630 
708 1 -43.61802 -53.24773 24.45630 
709 1 -44.52508 -54.53449 26.67960 
710 1 -41.78901 -54.52019 26.67960 
711 1 -58.27053 -43.07247 2.22330 
712 1 -56.43752 -44.34464 4.44660 
713 1 -57.34153 -45.62945 6.66990 
714 1 -54.60471 -45.61661 6.66990 
715 1 -55.50928 -46.90165 8.89320 
716 1 -52.77236 -46.88843 8.89320 
717 1 -53.67739 -48.17372 11.11650 
718 1 -50.94044 -48.16017 11.11650 
719 1 -51.84591 -49.44582 13.33980 
720 1 -49.10900 -49.43199 13.33980 
721 1 -50.01490 -50.71782 15.56310 
722 1 -47.27811 -50.70376 15.56310 
723 1 -48.18432 -51.98986 17.78640 
724 1 -45.44780 -51.97565 17.78640 
725 1 -46.35440 -53.26203 20.00970 
726 1 -43.61802 -53.24773 20.00970 
727 1 -44.52508 -54.53449 22.23300 
728 1 -41.78901 -54.52019 22.23300 
729 1 -56.43752 -44.34464 0.00000 
730 1 -57.34153 -45.62945 2.22330 
731 1 -54.60471 -45.61661 2.22330 
732 1 -55.50928 -46.90165 4.44660 
733 1 -52.77236 -46.88843 4.44660 
734 1 -53.67739 -48.17372 6.66990 
735 1 -50.94044 -48.16017 6.66990 
736 1 -51.84591 -49.44582 8.89320 
737 1 -49.10900 -49.43199 8.89320 
738 1 -50.01490 -50.71782 11.11650 
739 1 -47.27811 -50.70376 11.11650 
740 1 -48.18432 -51.98986 13.33980 
741 1 -45.44780 -51.97565 13.33980 
742 1 -46.35440 -53.26203 15.56310 
743 1 -43.61802 -53.24773 15.56310 
744 1 -44.52508 -54.53449 17.78640 
745 1 -41.78901 -54.52019 17.78640 
746 1 -55.50928 -46.90165 0.00000 
747 1 -52.77236 -46.88843 0.00000 
748 1 -53.67739 -48.17372 2.22330 
749 1 -50.94044 -48.16017 2.22330 
750 1 -51.84591 -49.44582 4.44660 
751 1 -49.10900 -49.43199 4.44660 
752 1 -50.01490 -50.71782 6.66990 
753 1 -47.27811 -50.70376 6.66990 
754 1 -48.18432 -51.98986 8.89320 
755 1 -45.44780 -51.97565 8.89320 
756 1 -46.35440 -53.26203 11.11650 
757 1 -43.61802 -53.24773 11.11650 
758 1 -44.52508 -54.53449 13.33980 
759 1 -41.78901 -54.52019 13.33980 
760 1 -51.84591 -49.44582 0.00000 
761 1 -49.10900 -49.43199 0.00000 
762 1 -50.01490 -50.71782 2.22330 
763 1 -47.27811 -50.70376 2.22330 
764 1 -48.18432 -51.98986 4.44660 
765 1 -45.44780 -51.97565 4.44660 
766 1 -46.35440 -53.26203 6.66990 
767 1 -43.61802 -53.24773 6.66990 
768 1 -44.52508 -54.53449 8.89320 
769 1 -41.78901 -54.52019 8.89320 
770 1 -48.18432 -51.98986 0.00000 
771 1 -45.44780 -51.97565 0.00000 
772 1 -46.35440 -53.26203 2.22330 
773 1 -43.61802 -53.24773 2.22330 
774 1 -44.52508 -54.53449 4.44660 
775 1 -41.78901 -54.52019 4.44660 
776 1 -44.52508 -54.53449 0.00000 
777 1 -41.78901 -54.52019 0.00000 
778 1 -58.29818 -39.23124 88.93200 
779 1 -56.46396 -40.50326 91.15530 
780 1 -58.29818 -39.23124 84.48540 
781 1 -56.46396 -40.50326 86.70870 
782 1 -57.36709 -41.78780 88.93200 
783 1 -54.62986 -41.77498 88.93200 
784 1 -55.53359 -43.05985 91.15530 
785 1 -52.79616 -43.04657 91.15530 
786 1 -58.29818 -39.23124 80.03880 
787 1 -56.46396 -40.50326 82.26210 
788 1 -57.36709 -41.78780 84.48540 
789 1 -54.62986 -41.77498 84.48540 
790 1 -55.53359 -43.05985 86.70870 
791 1 -52.79616 -43.04657 86.70870 
792 1 -53.70040 -44.33158 88.93200 
793 1 -50.96284 -44.31787 88.93200 
794 1 -51.86757 -45.60315 91.15530 
795 1 -49.12996 -45.58905 91.15530 
796 1 -58.29818 -39.23124 75.59220 
797 1 -56.46396 -40.50326 77.81550 
798 1 -57.36709 -41.78780 80.03880 
799 1 -54.62986 -41.77498 80.03880 
800 1 -55.53359 -43.05985 82.26210 
801 1 -52.79616 -43.04657 82.26210 
802 1 -53.70040 -44.33158 84.48540 
803 1 -50.96284 -44.31787 84.48540 
804 1 -51.86757 -45.60315 86.70870 
805 1 -49.12996 -45.58905 86.70870 
806 1 -50.03518 -46.87461 88.93200 
807 1 -47.29759 -46.86019 88.93200 
808 1 -48.20320 -48.14605 91.15530 
809 1 -45.46580 -48.13136 91.15530 
810 1 -58.29818 -39.23124 71.14560 
811 1 -56.46396 -40.50326 73.36890 
812 1 -57.36709 -41.78780 75.59220 
813 1 -54.62986 -41.77498 75.59220 
814 1 -55.53359 -43.05985 77.81550 
815 1 -52.79616 -43.04657 77.81550 
816 1 -53.70040 -44.33158 80.03880 
817 1 -50.96284 -44.31787 80.03880 
818 1 -51.86757 -45.60315 82.26210 
819 1 -49.12996 -45.58905 82.26210 
820 1 -50.03518 -46.87461 84.48540 
821 1 -47.29759 -46.86019 84.48540 
822 1 -48.20320 -48.14605 86.70870 
823 1 -45.46580 -48.13136 86.70870 
824 1 -46.37187 -49.41762 88.93200 
825 1 -43.63456 -49.40275 88.93200 
826 1 -44.54115 -50.68922 91.15530 
827 1 -41.80409 -50.67424 91.15530 
828 1 -58.29818 -39.23124 66.69900 
829 1 -56.46396 -40.50326 68.92230 
830 1 -57.36709 -41.78780 71.14560 
831 1 -54.62986 -41.77498 71.14560 
832 1 -55.53359 -43.05985 73.36890 