LAMMPS data file via write_data, version 2 Aug 2023, timestep = 42, units = metal

75579 atoms
3 atom types

-111.64198570561297 111.64198570561297 xlo xhi
-105.2570735434274 105.2570735434274 ylo yhi
-0 93.37859960726419 zlo zhi

Masses

1 183.84
2 1.008
3 4.0026

Atoms # atomic

6552 1 -39.60912 -4.58632 2.2233 0 0 0
6546 1 -39.2727 -0.74885 0 0 0 0
6540 1 -39.60912 -4.58632 15.5631 0 0 0
6534 1 -41.45509 -3.31152 17.7864 0 0 0
6528 1 -40.57383 -2.02512 20.0097 0 0 0
6 1 -58.20408 -54.60037 66.699 0 0 0
6522 1 -43.29863 -2.03564 24.4563 0 0 0
6516 1 -39.60912 -4.58632 37.7961 0 0 0
6510 1 -39.60912 -4.58632 42.2427 0 0 0
6504 1 -41.45509 -3.31152 44.466 0 0 0
6498 1 -43.29863 -2.03564 46.6893 0 0 0
12 1 -58.20408 -54.60037 40.0194 0 0 0
6492 1 -39.60912 -4.58632 60.0291 0 0 0
6486 1 -41.45509 -3.31152 62.2524 0 0 0
6480 1 -40.57383 -2.02512 64.4757 0 0 0
6474 1 -43.29863 -2.03564 68.9223 0 0 0
6468 1 -39.60912 -4.58632 82.2621 0 0 0
18 1 -58.20408 -54.60037 13.3398 0 0 0
6462 1 -41.45509 -3.31152 84.4854 0 0 0
6456 1 -40.57383 -2.02512 86.7087 0 0 0
6450 1 -39.52724 -8.42947 4.4466 0 0 0
6444 1 -40.49152 -5.87176 4.4466 0 0 0
6438 1 -39.52724 -8.42947 13.3398 0 0 0
24 1 -56.3931 -52.0297 88.932 0 0 0
6432 1 -44.18143 -3.3219 4.4466 0 0 0
6426 1 -41.37549 -7.15678 15.5631 0 0 0
6420 1 -46.90745 -3.33163 8.8932 0 0 0
6414 1 -41.37549 -7.15678 20.0097 0 0 0
6408 1 -46.90745 -3.33163 13.3398 0 0 0
30 1 -54.56273 -53.30243 86.7087 0 0 0
6402 1 -41.37549 -7.15678 24.4563 0 0 0
6396 1 -46.90745 -3.33163 17.7864 0 0 0
6390 1 -40.49152 -5.87176 26.6796 0 0 0
6384 1 -46.02321 -2.04549 20.0097 0 0 0
6378 1 -43.22155 -5.8828 31.1262 0 0 0
36 1 -54.56273 -53.30243 82.2621 0 0 0
6372 1 -48.7475 -2.05475 24.4563 0 0 0
6366 1 -42.33761 -4.59738 33.3495 0 0 0
6360 1 -44.71867 -0.7683 26.6796 0 0 0
6354 1 -42.33761 -4.59738 37.7961 0 0 0
6348 1 -44.71867 -0.7683 31.1262 0 0 0
42 1 -54.56273 -53.30243 77.8155 0 0 0
6342 1 -45.06551 -4.60769 42.2427 0 0 0
6336 1 -39.52724 -8.42947 53.3592 0 0 0
6330 1 -45.06551 -4.60769 46.6893 0 0 0
6324 1 -39.52724 -8.42947 57.8058 0 0 0
6318 1 -44.18143 -3.3219 48.9126 0 0 0
48 1 -54.56273 -53.30243 73.3689 0 0 0
6312 1 -41.37549 -7.15678 60.0291 0 0 0
6306 1 -46.90745 -3.33163 53.3592 0 0 0
6300 1 -41.37549 -7.15678 64.4757 0 0 0
6294 1 -46.90745 -3.33163 57.8058 0 0 0
6288 1 -41.37549 -7.15678 68.9223 0 0 0
54 1 -54.56273 -53.30243 68.9223 0 0 0
6282 1 -46.90745 -3.33163 62.2524 0 0 0
6276 1 -40.49152 -5.87176 71.1456 0 0 0
6270 1 -46.02321 -2.04549 64.4757 0 0 0
6264 1 -40.49152 -5.87176 75.5922 0 0 0
6258 1 -46.02321 -2.04549 68.9223 0 0 0
60 1 -54.56273 -53.30243 64.4757 0 0 0
6252 1 -42.33761 -4.59738 77.8155 0 0 0
6246 1 -44.71867 -0.7683 71.1456 0 0 0
6240 1 -45.06551 -4.60769 82.2621 0 0 0
6234 1 -41.37549 -7.15678 91.1553 0 0 0
6228 1 -46.90745 -3.33163 84.4854 0 0 0
66 1 -54.56273 -53.30243 60.0291 0 0 0
6222 1 -44.18143 -3.3219 88.932 0 0 0
6216 1 -48.7475 -2.05475 91.1553 0 0 0
6210 1 -41.30008 -10.99796 4.4466 0 0 0
6204 1 -41.30008 -10.99796 8.8932 0 0 0
6198 1 -46.83702 -7.17812 2.2233 0 0 0
72 1 -54.56273 -53.30243 55.5825 0 0 0
6192 1 -43.14751 -9.72589 11.1165 0 0 0
6186 1 -48.67914 -5.9027 4.4466 0 0 0
6180 1 -41.30008 -10.99796 17.7864 0 0 0
6174 1 -46.83702 -7.17812 11.1165 0 0 0
6168 1 -52.35853 -3.34941 4.4466 0 0 0
78 1 -54.56273 -53.30243 51.1359 0 0 0
6162 1 -40.41289 -9.71381 20.0097 0 0 0
6156 1 -45.95075 -5.89308 13.3398 0 0 0
6150 1 -51.47174 -2.06348 6.6699 0 0 0
6144 1 -43.14751 -9.72589 24.4563 0 0 0
6138 1 -48.67914 -5.9027 17.7864 0 0 0
84 1 -54.56273 -53.30243 46.6893 0 0 0
6132 1 -54.19586 -2.07175 11.1165 0 0 0
6126 1 -42.26077 -8.44148 26.6796 0 0 0
6120 1 -47.79283 -4.61735 20.0097 0 0 0
6114 1 -52.88754 -0.79356 13.3398 0 0 0
6108 1 -44.99315 -8.45257 31.1262 0 0 0
90 1 -54.56273 -53.30243 42.2427 0 0 0
6102 1 -50.51969 -4.62643 24.4563 0 0 0
6096 1 -39.45092 -12.26856 42.2427 0 0 0
6090 1 -44.10668 -7.16784 33.3495 0 0 0
6084 1 -49.63313 -3.34078 26.6796 0 0 0
6078 1 -39.45092 -12.26856 46.6893 0 0 0
96 1 -54.56273 -53.30243 37.7961 0 0 0
6072 1 -44.10668 -7.16784 37.7961 0 0 0
6066 1 -49.63313 -3.34078 31.1262 0 0 0
6060 1 -41.30008 -10.99796 48.9126 0 0 0
6054 1 -46.83702 -7.17812 42.2427 0 0 0
6048 1 -52.35853 -3.34941 35.5728 0 0 0
102 1 -54.56273 -53.30243 33.3495 0 0 0
6042 1 -40.41289 -9.71381 51.1359 0 0 0
6036 1 -45.95075 -5.89308 44.466 0 0 0
6030 1 -51.47174 -2.06348 37.7961 0 0 0
6024 1 -42.26077 -8.44148 53.3592 0 0 0
6018 1 -47.79283 -4.61735 46.6893 0 0 0
108 1 -54.56273 -53.30243 28.9029 0 0 0
6012 1 -52.88754 -0.79356 40.0194 0 0 0
6006 1 -44.99315 -8.45257 57.8058 0 0 0
6000 1 -50.51969 -4.62643 51.1359 0 0 0
5994 1 -52.88754 -0.79356 44.466 0 0 0
5988 1 -44.99315 -8.45257 62.2524 0 0 0
114 1 -54.56273 -53.30243 24.4563 0 0 0
5982 1 -50.51969 -4.62643 55.5825 0 0 0
5976 1 -39.45092 -12.26856 73.3689 0 0 0
5970 1 -44.10668 -7.16784 64.4757 0 0 0
5964 1 -49.63313 -3.34078 57.8058 0 0 0
5958 1 -38.56304 -10.9847 75.5922 0 0 0
120 1 -54.56273 -53.30243 20.0097 0 0 0
5952 1 -44.10668 -7.16784 68.9223 0 0 0
5946 1 -49.63313 -3.34078 62.2524 0 0 0
5940 1 -41.30008 -10.99796 80.0388 0 0 0
5934 1 -46.83702 -7.17812 73.3689 0 0 0
5928 1 -52.35853 -3.34941 66.699 0 0 0
126 1 -54.56273 -53.30243 15.5631 0 0 0
5922 1 -43.14751 -9.72589 82.2621 0 0 0
5916 1 -48.67914 -5.9027 75.5922 0 0 0
5910 1 -54.19586 -2.07175 68.9223 0 0 0
5904 1 -42.26077 -8.44148 84.4854 0 0 0
5898 1 -47.79283 -4.61735 77.8155 0 0 0
132 1 -54.56273 -53.30243 11.1165 0 0 0
5892 1 -50.16455 -0.78559 71.1456 0 0 0
5886 1 -46.83702 -7.17812 86.7087 0 0 0
5880 1 -52.35853 -3.34941 80.0388 0 0 0
5874 1 -48.67914 -5.9027 88.932 0 0 0
5868 1 -54.19586 -2.07175 82.2621 0 0 0
138 1 -54.56273 -53.30243 6.6699 0 0 0
5862 1 -51.47174 -2.06348 86.7087 0 0 0
5856 1 -52.88754 -0.79356 88.932 0 0 0
5850 1 -39.38189 -16.10498 8.8932 0 0 0
5844 1 -44.03542 -11.01011 0 0 0 0
5838 1 -42.18854 -12.28189 6.6699 0 0 0
144 1 -55.46859 -54.58804 4.4466 0 0 0
5832 1 -47.72449 -8.46289 0 0 0 0
5826 1 -42.18854 -12.28189 11.1165 0 0 0
5820 1 -47.72449 -8.46289 4.4466 0 0 0
5814 1 -39.38189 -16.10498 22.233 0 0 0
5808 1 -44.03542 -11.01011 13.3398 0 0 0
150 1 -58.24582 -46.91427 84.4854 0 0 0
5802 1 -49.56656 -7.18774 6.6699 0 0 0
5796 1 -55.08359 -3.35759 0 0 0 0
5790 1 -42.18854 -12.28189 20.0097 0 0 0
5784 1 -47.72449 -8.46289 13.3398 0 0 0
5778 1 -53.24604 -4.63499 6.6699 0 0 0
156 1 -58.24582 -46.91427 80.0388 0 0 0
5772 1 -39.38189 -16.10498 31.1262 0 0 0
5766 1 -44.03542 -11.01011 22.233 0 0 0
5760 1 -49.56656 -7.18774 15.5631 0 0 0
5754 1 -55.08359 -3.35759 8.8932 0 0 0
5748 1 -40.34012 -13.55231 31.1262 0 0 0
162 1 -53.65706 -52.0169 88.932 0 0 0
5742 1 -45.88082 -9.73704 24.4563 0 0 0
5736 1 -51.40705 -5.91174 17.7864 0 0 0
5730 1 -56.91986 -2.07961 11.1165 0 0 0
5724 1 -44.92464 -12.29411 33.3495 0 0 0
5718 1 -50.45494 -8.47252 26.6796 0 0 0
168 1 -57.31876 -49.47186 80.0388 0 0 0
5712 1 -55.97215 -4.64311 20.0097 0 0 0
5706 1 -40.34012 -13.55231 40.0194 0 0 0
5700 1 -45.88082 -9.73704 33.3495 0 0 0
5694 1 -51.40705 -5.91174 26.6796 0 0 0
5688 1 -56.91986 -2.07961 20.0097 0 0 0
174 1 -51.82685 -53.2894 86.7087 0 0 0
5682 1 -42.18854 -12.28189 42.2427 0 0 0
5676 1 -47.72449 -8.46289 35.5728 0 0 0
5670 1 -53.24604 -4.63499 28.9029 0 0 0
5664 1 -39.38189 -16.10498 53.3592 0 0 0
5658 1 -44.03542 -11.01011 44.466 0 0 0
180 1 -57.31876 -49.47186 75.5922 0 0 0
5652 1 -49.56656 -7.18774 37.7961 0 0 0
5646 1 -55.08359 -3.35759 31.1262 0 0 0
5640 1 -43.07835 -13.56571 53.3592 0 0 0
5634 1 -48.61291 -9.74739 46.6893 0 0 0
5628 1 -54.13446 -5.92027 40.0194 0 0 0
186 1 -51.82685 -53.2894 82.2621 0 0 0
5622 1 -39.38189 -16.10498 62.2524 0 0 0
5616 1 -44.03542 -11.01011 53.3592 0 0 0
5610 1 -49.56656 -7.18774 46.6893 0 0 0
5604 1 -55.08359 -3.35759 40.0194 0 0 0
5598 1 -40.34012 -13.55231 62.2524 0 0 0
192 1 -57.31876 -49.47186 71.1456 0 0 0
5592 1 -45.88082 -9.73704 55.5825 0 0 0
5586 1 -51.40705 -5.91174 48.9126 0 0 0
5580 1 -56.91986 -2.07961 42.2427 0 0 0
5574 1 -42.18854 -12.28189 64.4757 0 0 0
5568 1 -47.72449 -8.46289 57.8058 0 0 0
198 1 -51.82685 -53.2894 77.8155 0 0 0
5562 1 -53.24604 -4.63499 51.1359 0 0 0
5556 1 -41.23072 -14.83609 73.3689 0 0 0
5550 1 -46.76951 -11.02132 66.699 0 0 0
5544 1 -52.29541 -7.19677 60.0291 0 0 0
5538 1 -57.80853 -3.36535 53.3592 0 0 0
204 1 -57.31876 -49.47186 66.699 0 0 0
5532 1 -42.18854 -12.28189 73.3689 0 0 0
5526 1 -47.72449 -8.46289 66.699 0 0 0
5520 1 -53.24604 -4.63499 60.0291 0 0 0
5514 1 -41.23072 -14.83609 82.2621 0 0 0
5508 1 -46.76951 -11.02132 75.5922 0 0 0
210 1 -51.82685 -53.2894 73.3689 0 0 0
5502 1 -52.29541 -7.19677 68.9223 0 0 0
5496 1 -57.80853 -3.36535 62.2524 0 0 0
5490 1 -42.18854 -12.28189 82.2621 0 0 0
5484 1 -47.72449 -8.46289 75.5922 0 0 0
5478 1 -53.24604 -4.63499 68.9223 0 0 0
216 1 -57.31876 -49.47186 62.2524 0 0 0
5472 1 -41.23072 -14.83609 91.1553 0 0 0
5466 1 -46.76951 -11.02132 84.4854 0 0 0
5460 1 -52.29541 -7.19677 77.8155 0 0 0
5454 1 -57.80853 -3.36535 71.1456 0 0 0
5448 1 -46.76951 -11.02132 88.932 0 0 0
222 1 -51.82685 -53.2894 68.9223 0 0 0
5442 1 -52.29541 -7.19677 82.2621 0 0 0
5436 1 -57.80853 -3.36535 75.5922 0 0 0
5430 1 -49.56656 -7.18774 86.7087 0 0 0
5424 1 -55.08359 -3.35759 80.0388 0 0 0
5418 1 -54.13446 -5.92027 88.932 0 0 0
228 1 -57.31876 -49.47186 57.8058 0 0 0
5412 1 -55.61054 -0.80114 80.0388 0 0 0
5406 1 -55.61054 -0.80114 84.4854 0 0 0
5400 1 -40.27459 -17.38862 2.2233 0 0 0
5394 1 -40.27459 -17.38862 6.6699 0 0 0
5388 1 -45.81499 -13.57799 0 0 0 0
234 1 -51.82685 -53.2894 64.4757 0 0 0
5382 1 -42.12242 -16.11974 8.8932 0 0 0
5376 1 -47.65938 -12.30539 2.2233 0 0 0
5370 1 -40.27459 -17.38862 15.5631 0 0 0
5364 1 -45.81499 -13.57799 8.8932 0 0 0
5358 1 -51.34417 -9.75706 2.2233 0 0 0
240 1 -57.31876 -49.47186 53.3592 0 0 0
5352 1 -40.27459 -17.38862 20.0097 0 0 0
5346 1 -45.81499 -13.57799 13.3398 0 0 0
5340 1 -51.34417 -9.75706 6.6699 0 0 0
5334 1 -56.86145 -5.92835 0 0 0 0
5328 1 -44.86131 -16.13321 22.233 0 0 0
246 1 -51.82685 -53.2894 60.0291 0 0 0
5322 1 -50.39295 -12.31584 15.5631 0 0 0
5316 1 -55.91359 -8.49008 8.8932 0 0 0
5310 1 -41.16848 -18.6723 31.1262 0 0 0
5304 1 -46.70629 -14.86187 24.4563 0 0 0
5298 1 -52.2344 -11.04143 17.7864 0 0 0
252 1 -57.31876 -49.47186 48.9126 0 0 0
5292 1 -57.75137 -7.21335 11.1165 0 0 0
5286 1 -43.01532 -17.40338 33.3495 0 0 0
5280 1 -48.55016 -13.58932 26.6796 0 0 0
5274 1 -54.07461 -9.76613 20.0097 0 0 0
5268 1 -58.69797 -4.65081 11.1165 0 0 0
258 1 -51.82685 -53.2894 55.5825 0 0 0
5262 1 -44.86131 -16.13321 35.5728 0 0 0
5256 1 -50.39295 -12.31584 28.9029 0 0 0
5250 1 -55.91359 -8.49008 22.233 0 0 0
5244 1 -41.16848 -18.6723 44.466 0 0 0
5238 1 -46.70629 -14.86187 37.7961 0 0 0
264 1 -57.31876 -49.47186 44.466 0 0 0
5232 1 -52.2344 -11.04143 31.1262 0 0 0
5226 1 -57.75137 -7.21335 24.4563 0 0 0
5220 1 -43.01532 -17.40338 46.6893 0 0 0
5214 1 -48.55016 -13.58932 40.0194 0 0 0
5208 1 -54.07461 -9.76613 33.3495 0 0 0
270 1 -51.82685 -53.2894 51.1359 0 0 0
5202 1 -58.69797 -4.65081 24.4563 0 0 0
5196 1 -44.86131 -16.13321 48.9126 0 0 0
5190 1 -50.39295 -12.31584 42.2427 0 0 0
5184 1 -55.91359 -8.49008 35.5728 0 0 0
5178 1 -41.16848 -18.6723 57.8058 0 0 0
276 1 -57.31876 -49.47186 40.0194 0 0 0
5172 1 -46.70629 -14.86187 51.1359 0 0 0
5166 1 -52.2344 -11.04143 44.466 0 0 0
5160 1 -57.75137 -7.21335 37.7961 0 0 0
5154 1 -43.01532 -17.40338 60.0291 0 0 0
5148 1 -48.55016 -13.58932 53.3592 0 0 0
282 1 -51.82685 -53.2894 46.6893 0 0 0
5142 1 -54.07461 -9.76613 46.6893 0 0 0
5136 1 -58.69797 -4.65081 37.7961 0 0 0
5130 1 -44.86131 -16.13321 62.2524 0 0 0
5124 1 -50.39295 -12.31584 55.5825 0 0 0
5118 1 -55.91359 -8.49008 48.9126 0 0 0
288 1 -57.31876 -49.47186 35.5728 0 0 0
5112 1 -41.16848 -18.6723 71.1456 0 0 0
5106 1 -46.70629 -14.86187 64.4757 0 0 0
5100 1 -52.2344 -11.04143 57.8058 0 0 0
5094 1 -57.75137 -7.21335 51.1359 0 0 0
5088 1 -43.01532 -17.40338 73.3689 0 0 0
294 1 -51.82685 -53.2894 42.2427 0 0 0
5082 1 -48.55016 -13.58932 66.699 0 0 0
5076 1 -54.07461 -9.76613 60.0291 0 0 0
5070 1 -58.69797 -4.65081 51.1359 0 0 0
5064 1 -44.86131 -16.13321 75.5922 0 0 0
5058 1 -50.39295 -12.31584 68.9223 0 0 0
300 1 -57.31876 -49.47186 31.1262 0 0 0
5052 1 -55.91359 -8.49008 62.2524 0 0 0
5046 1 -38.42595 -18.65614 84.4854 0 0 0
5040 1 -43.96924 -14.84954 77.8155 0 0 0
5034 1 -49.50245 -11.03172 71.1456 0 0 0
5028 1 -55.02359 -7.20529 64.4757 0 0 0
306 1 -51.82685 -53.2894 37.7961 0 0 0
5022 1 -40.27459 -17.38862 86.7087 0 0 0
5016 1 -45.81499 -13.57799 80.0388 0 0 0
5010 1 -51.34417 -9.75706 73.3689 0 0 0
5004 1 -56.86145 -5.92835 66.699 0 0 0
4998 1 -43.96924 -14.84954 86.7087 0 0 0
312 1 -57.31876 -49.47186 26.6796 0 0 0
4992 1 -49.50245 -11.03172 80.0388 0 0 0
4986 1 -55.02359 -7.20529 73.3689 0 0 0
4980 1 -45.81499 -13.57799 88.932 0 0 0
4974 1 -51.34417 -9.75706 82.2621 0 0 0
4968 1 -56.86145 -5.92835 75.5922 0 0 0
318 1 -51.82685 -53.2894 33.3495 0 0 0
4962 1 -51.34417 -9.75706 86.7087 0 0 0
4956 1 -56.86145 -5.92835 80.0388 0 0 0
4950 1 -55.02359 -7.20529 86.7087 0 0 0
4944 1 -56.86145 -5.92835 88.932 0 0 0
4938 1 -40.21687 -21.22397 0 0 0 0
324 1 -57.31876 -49.47186 22.233 0 0 0
4932 1 -42.06326 -19.95603 2.2233 0 0 0
4926 1 -40.21687 -21.22397 8.8932 0 0 0
4920 1 -45.75439 -17.41686 2.2233 0 0 0
4914 1 -40.21687 -21.22397 13.3398 0 0 0
4908 1 -45.75439 -17.41686 6.6699 0 0 0
330 1 -51.82685 -53.2894 28.9029 0 0 0
4902 1 -51.28426 -13.59983 0 0 0 0
4896 1 -42.06326 -19.95603 15.5631 0 0 0
4890 1 -47.59869 -16.14558 8.8932 0 0 0
4884 1 -53.1254 -12.3256 2.2233 0 0 0
4878 1 -40.21687 -21.22397 22.233 0 0 0
336 1 -57.31876 -49.47186 17.7864 0 0 0
4872 1 -45.75439 -17.41686 15.5631 0 0 0
4866 1 -51.28426 -13.59983 8.8932 0 0 0
4860 1 -56.80436 -9.77466 2.2233 0 0 0
4854 1 -42.06326 -19.95603 24.4563 0 0 0
4848 1 -47.59869 -16.14558 17.7864 0 0 0
342 1 -51.82685 -53.2894 24.4563 0 0 0
4842 1 -53.1254 -12.3256 11.1165 0 0 0
4836 1 -39.26824 -23.77495 35.5728 0 0 0
4830 1 -43.90913 -18.68702 26.6796 0 0 0
4824 1 -49.442 -14.87325 20.0097 0 0 0
4818 1 -54.9654 -11.05053 13.3398 0 0 0
348 1 -57.31876 -49.47186 13.3398 0 0 0
4812 1 -40.21687 -21.22397 35.5728 0 0 0
4806 1 -45.75439 -17.41686 28.9029 0 0 0
4800 1 -51.28426 -13.59983 22.233 0 0 0
4794 1 -56.80436 -9.77466 15.5631 0 0 0
4788 1 -42.06326 -19.95603 37.7961 0 0 0
354 1 -51.82685 -53.2894 20.0097 0 0 0
4782 1 -47.59869 -16.14558 31.1262 0 0 0
4776 1 -53.1254 -12.3256 24.4563 0 0 0
4770 1 -39.26824 -23.77495 48.9126 0 0 0
4764 1 -43.90913 -18.68702 40.0194 0 0 0
4758 1 -49.442 -14.87325 33.3495 0 0 0
360 1 -57.31876 -49.47186 8.8932 0 0 0
4752 1 -54.9654 -11.05053 26.6796 0 0 0
4746 1 -40.21687 -21.22397 48.9126 0 0 0
4740 1 -45.75439 -17.41686 42.2427 0 0 0
4734 1 -51.28426 -13.59983 35.5728 0 0 0
4728 1 -56.80436 -9.77466 28.9029 0 0 0
366 1 -51.82685 -53.2894 15.5631 0 0 0
4722 1 -42.06326 -19.95603 51.1359 0 0 0
4716 1 -47.59869 -16.14558 44.466 0 0 0
4710 1 -53.1254 -12.3256 37.7961 0 0 0
4704 1 -39.26824 -23.77495 62.2524 0 0 0
4698 1 -43.90913 -18.68702 53.3592 0 0 0
372 1 -57.31876 -49.47186 4.4466 0 0 0
4692 1 -49.442 -14.87325 46.6893 0 0 0
4686 1 -54.9654 -11.05053 40.0194 0 0 0
4680 1 -40.21687 -21.22397 62.2524 0 0 0
4674 1 -45.75439 -17.41686 55.5825 0 0 0
4668 1 -51.28426 -13.59983 48.9126 0 0 0
378 1 -51.82685 -53.2894 11.1165 0 0 0
4662 1 -56.80436 -9.77466 42.2427 0 0 0
4656 1 -42.06326 -19.95603 64.4757 0 0 0
4650 1 -47.59869 -16.14558 57.8058 0 0 0
4644 1 -53.1254 -12.3256 51.1359 0 0 0
4638 1 -39.26824 -23.77495 75.5922 0 0 0
384 1 -55.48771 -50.74441 2.2233 0 0 0
4632 1 -43.90913 -18.68702 66.699 0 0 0
4626 1 -49.442 -14.87325 60.0291 0 0 0
4620 1 -54.9654 -11.05053 53.3592 0 0 0
4614 1 -40.21687 -21.22397 75.5922 0 0 0
4608 1 -45.75439 -17.41686 68.9223 0 0 0
390 1 -49.99713 -54.56207 8.8932 0 0 0
4602 1 -51.28426 -13.59983 62.2524 0 0 0
4596 1 -56.80436 -9.77466 55.5825 0 0 0
4590 1 -42.95905 -21.2399 80.0388 0 0 0
4584 1 -48.4919 -17.42925 73.3689 0 0 0
4578 1 -54.01733 -13.60963 66.699 0 0 0
396 1 -49.99713 -54.56207 4.4466 0 0 0
4572 1 -58.64209 -8.49814 57.8058 0 0 0
4566 1 -44.80397 -19.97068 82.2621 0 0 0
4560 1 -50.33474 -16.15701 75.5922 0 0 0
4554 1 -55.85707 -12.33473 68.9223 0 0 0
4548 1 -40.21687 -21.22397 88.932 0 0 0
402 1 -56.43752 -44.34464 88.932 0 0 0
4542 1 -45.75439 -17.41686 82.2621 0 0 0
4536 1 -51.28426 -13.59983 75.5922 0 0 0
4530 1 -56.80436 -9.77466 68.9223 0 0 0
4524 1 -45.75439 -17.41686 86.7087 0 0 0
4518 1 -51.28426 -13.59983 80.0388 0 0 0
408 1 -54.60471 -45.61661 86.7087 0 0 0
4512 1 -56.80436 -9.77466 73.3689 0 0 0
4506 1 -49.442 -14.87325 86.7087 0 0 0
4500 1 -54.9654 -11.05053 80.0388 0 0 0
4494 1 -51.28426 -13.59983 88.932 0 0 0
4488 1 -56.80436 -9.77466 82.2621 0 0 0
414 1 -56.43752 -44.34464 80.0388 0 0 0
4482 1 -56.80436 -9.77466 86.7087 0 0 0
4476 1 -39.22318 -27.61072 6.6699 0 0 0
4470 1 -39.22318 -27.61072 11.1165 0 0 0
4464 1 -43.85557 -22.52372 2.2233 0 0 0
4458 1 -40.1669 -25.05931 11.1165 0 0 0
420 1 -50.94044 -48.16017 86.7087 0 0 0
4452 1 -45.69966 -21.25447 4.4466 0 0 0
4446 1 -39.22318 -27.61072 20.0097 0 0 0
4440 1 -43.85557 -22.52372 11.1165 0 0 0
4434 1 -49.38608 -18.71289 4.4466 0 0 0
4428 1 -39.22318 -27.61072 24.4563 0 0 0
426 1 -56.43752 -44.34464 75.5922 0 0 0
4422 1 -43.85557 -22.52372 15.5631 0 0 0
4416 1 -49.38608 -18.71289 8.8932 0 0 0
4410 1 -54.90994 -14.89366 2.2233 0 0 0
4404 1 -42.90962 -25.07611 24.4563 0 0 0
4398 1 -48.43875 -21.26788 17.7864 0 0 0
432 1 -50.94044 -48.16017 82.2621 0 0 0
4392 1 -53.96341 -17.45134 11.1165 0 0 0
4386 1 -58.58799 -12.34333 2.2233 0 0 0
4380 1 -44.75293 -23.80761 26.6796 0 0 0
4374 1 -50.28105 -19.99652 20.0097 0 0 0
4368 1 -55.8034 -16.17749 13.3398 0 0 0
438 1 -45.4478 -51.97565 88.932 0 0 0
4362 1 -41.0663 -26.34385 35.5728 0 0 0
4356 1 -46.59603 -22.53821 28.9029 0 0 0
4350 1 -52.1226 -18.72437 22.233 0 0 0
4344 1 -57.64254 -14.90288 15.5631 0 0 0
4338 1 -42.90962 -25.07611 37.7961 0 0 0
444 1 -54.60471 -45.61661 73.3689 0 0 0
4332 1 -48.43875 -21.26788 31.1262 0 0 0
4326 1 -53.96341 -17.45134 24.4563 0 0 0
4320 1 -58.58799 -12.34333 15.5631 0 0 0
4314 1 -44.75293 -23.80761 40.0194 0 0 0
4308 1 -50.28105 -19.99652 33.3495 0 0 0
450 1 -49.109 -49.43199 80.0388 0 0 0
4302 1 -55.8034 -16.17749 26.6796 0 0 0
4296 1 -41.0663 -26.34385 48.9126 0 0 0
4290 1 -46.59603 -22.53821 42.2427 0 0 0
4284 1 -52.1226 -18.72437 35.5728 0 0 0
4278 1 -57.64254 -14.90288 28.9029 0 0 0
456 1 -43.61802 -53.24773 86.7087 0 0 0
4272 1 -42.90962 -25.07611 51.1359 0 0 0
4266 1 -48.43875 -21.26788 44.466 0 0 0
4260 1 -53.96341 -17.45134 37.7961 0 0 0
4254 1 -58.58799 -12.34333 28.9029 0 0 0
4248 1 -44.75293 -23.80761 53.3592 0 0 0
462 1 -54.60471 -45.61661 68.9223 0 0 0
4242 1 -50.28105 -19.99652 46.6893 0 0 0
4236 1 -55.8034 -16.17749 40.0194 0 0 0
4230 1 -38.32267 -26.32588 62.2524 0 0 0
4224 1 -43.85557 -22.52372 55.5825 0 0 0
4218 1 -49.38608 -18.71289 48.9126 0 0 0
468 1 -49.109 -49.43199 75.5922 0 0 0
4212 1 -54.90994 -14.89366 42.2427 0 0 0
4206 1 -40.1669 -25.05931 64.4757 0 0 0
4200 1 -45.69966 -21.25447 57.8058 0 0 0
4194 1 -51.22822 -17.4407 51.1359 0 0 0
4188 1 -56.7495 -13.61881 44.466 0 0 0
474 1 -43.61802 -53.24773 82.2621 0 0 0
4182 1 -42.01127 -23.79199 66.699 0 0 0
4176 1 -47.54318 -19.98413 60.0291 0 0 0
4170 1 -53.06953 -16.16761 53.3592 0 0 0
4164 1 -39.22318 -27.61072 77.8155 0 0 0
4158 1 -43.85557 -22.52372 68.9223 0 0 0
480 1 -54.60471 -45.61661 64.4757 0 0 0
4152 1 -49.38608 -18.71289 62.2524 0 0 0
4146 1 -54.90994 -14.89366 55.5825 0 0 0
4140 1 -40.1669 -25.05931 77.8155 0 0 0
4134 1 -45.69966 -21.25447 71.1456 0 0 0
4128 1 -51.22822 -17.4407 64.4757 0 0 0
486 1 -49.109 -49.43199 71.1456 0 0 0
4122 1 -56.7495 -13.61881 57.8058 0 0 0
4116 1 -42.90962 -25.07611 82.2621 0 0 0
4110 1 -48.43875 -21.26788 75.5922 0 0 0
4104 1 -53.96341 -17.45134 68.9223 0 0 0
4098 1 -58.58799 -12.34333 60.0291 0 0 0
492 1 -43.61802 -53.24773 77.8155 0 0 0
4092 1 -44.75293 -23.80761 84.4854 0 0 0
4086 1 -50.28105 -19.99652 77.8155 0 0 0
4080 1 -55.8034 -16.17749 71.1456 0 0 0
4074 1 -42.90962 -25.07611 91.1553 0 0 0
4068 1 -48.43875 -21.26788 84.4854 0 0 0
498 1 -54.60471 -45.61661 60.0291 0 0 0
4062 1 -53.96341 -17.45134 77.8155 0 0 0
4056 1 -58.58799 -12.34333 68.9223 0 0 0
4050 1 -50.28105 -19.99652 86.7087 0 0 0
4044 1 -55.8034 -16.17749 80.0388 0 0 0
4038 1 -50.28105 -19.99652 91.1553 0 0 0
504 1 -49.109 -49.43199 66.699 0 0 0
4032 1 -55.8034 -16.17749 84.4854 0 0 0
4026 1 -53.96341 -17.45134 91.1553 0 0 0
4020 1 -58.58799 -12.34333 82.2621 0 0 0
4014 1 -39.18502 -31.44777 0 0 0 0
4008 1 -41.02564 -30.18061 6.6699 0 0 0
510 1 -43.61802 -53.24773 73.3689 0 0 0
4002 1 -46.54957 -26.37566 0 0 0 0
3996 1 -44.7081 -27.64465 6.6699 0 0 0
3990 1 -50.23225 -23.83525 0 0 0 0
3984 1 -44.7081 -27.64465 11.1165 0 0 0
3978 1 -50.23225 -23.83525 4.4466 0 0 0
516 1 -54.60471 -45.61661 55.5825 0 0 0
3972 1 -41.02564 -30.18061 20.0097 0 0 0
3966 1 -46.54957 -26.37566 13.3398 0 0 0
3960 1 -52.07307 -22.5639 6.6699 0 0 0
3954 1 -57.59232 -18.74498 0 0 0 0
3948 1 -44.7081 -27.64465 20.0097 0 0 0
522 1 -49.109 -49.43199 62.2524 0 0 0
3942 1 -50.23225 -23.83525 13.3398 0 0 0
3936 1 -55.75319 -20.01869 6.6699 0 0 0
3930 1 -41.02564 -30.18061 28.9029 0 0 0
3924 1 -46.54957 -26.37566 22.233 0 0 0
3918 1 -52.07307 -22.5639 15.5631 0 0 0
528 1 -43.61802 -53.24773 68.9223 0 0 0
3912 1 -57.59232 -18.74498 8.8932 0 0 0
3906 1 -42.86672 -28.91294 31.1262 0 0 0
3900 1 -48.39097 -25.1058 24.4563 0 0 0
3894 1 -53.91341 -21.29173 17.7864 0 0 0
3888 1 -58.53637 -16.18675 8.8932 0 0 0
534 1 -54.60471 -45.61661 51.1359 0 0 0
3882 1 -44.7081 -27.64465 33.3495 0 0 0
3876 1 -50.23225 -23.83525 26.6796 0 0 0
3870 1 -55.75319 -20.01869 20.0097 0 0 0
3864 1 -41.02564 -30.18061 42.2427 0 0 0
3858 1 -46.54957 -26.37566 35.5728 0 0 0
540 1 -49.109 -49.43199 57.8058 0 0 0
3852 1 -52.07307 -22.5639 28.9029 0 0 0
3846 1 -57.59232 -18.74498 22.233 0 0 0
3840 1 -42.86672 -28.91294 44.466 0 0 0
3834 1 -48.39097 -25.1058 37.7961 0 0 0
3828 1 -53.91341 -21.29173 31.1262 0 0 0
546 1 -43.61802 -53.24773 64.4757 0 0 0
3822 1 -58.53637 -16.18675 22.233 0 0 0
3816 1 -44.7081 -27.64465 46.6893 0 0 0
3810 1 -50.23225 -23.83525 40.0194 0 0 0
3804 1 -55.75319 -20.01869 33.3495 0 0 0
3798 1 -41.02564 -30.18061 55.5825 0 0 0
552 1 -54.60471 -45.61661 46.6893 0 0 0
3792 1 -46.54957 -26.37566 48.9126 0 0 0
3786 1 -52.07307 -22.5639 42.2427 0 0 0
3780 1 -57.59232 -18.74498 35.5728 0 0 0
3774 1 -42.86672 -28.91294 57.8058 0 0 0
3768 1 -48.39097 -25.1058 51.1359 0 0 0
558 1 -49.109 -49.43199 53.3592 0 0 0
3762 1 -53.91341 -21.29173 44.466 0 0 0
3756 1 -58.53637 -16.18675 35.5728 0 0 0
3750 1 -44.7081 -27.64465 60.0291 0 0 0
3744 1 -50.23225 -23.83525 53.3592 0 0 0
3738 1 -55.75319 -20.01869 46.6893 0 0 0
564 1 -43.61802 -53.24773 60.0291 0 0 0
3732 1 -41.02564 -30.18061 68.9223 0 0 0
3726 1 -46.54957 -26.37566 62.2524 0 0 0
3720 1 -52.07307 -22.5639 55.5825 0 0 0
3714 1 -57.59232 -18.74498 48.9126 0 0 0
3708 1 -42.86672 -28.91294 71.1456 0 0 0
570 1 -54.60471 -45.61661 42.2427 0 0 0
3702 1 -48.39097 -25.1058 64.4757 0 0 0
3696 1 -53.91341 -21.29173 57.8058 0 0 0
3690 1 -58.53637 -16.18675 48.9126 0 0 0
3684 1 -44.7081 -27.64465 73.3689 0 0 0
3678 1 -50.23225 -23.83525 66.699 0 0 0
576 1 -49.109 -49.43199 48.9126 0 0 0
3672 1 -55.75319 -20.01869 60.0291 0 0 0
3666 1 -41.02564 -30.18061 82.2621 0 0 0
3660 1 -46.54957 -26.37566 75.5922 0 0 0
3654 1 -52.07307 -22.5639 68.9223 0 0 0
3648 1 -57.59232 -18.74498 62.2524 0 0 0
582 1 -43.61802 -53.24773 55.5825 0 0 0
3642 1 -42.86672 -28.91294 84.4854 0 0 0
3636 1 -48.39097 -25.1058 77.8155 0 0 0
3630 1 -53.91341 -21.29173 71.1456 0 0 0
3624 1 -58.53637 -16.18675 62.2524 0 0 0
3618 1 -43.80852 -26.3604 84.4854 0 0 0
588 1 -54.60471 -45.61661 37.7961 0 0 0
3612 1 -49.33516 -22.55155 77.8155 0 0 0
3606 1 -54.85791 -18.73503 71.1456 0 0 0
3600 1 -43.80852 -26.3604 88.932 0 0 0
3594 1 -49.33516 -22.55155 82.2621 0 0 0
3588 1 -54.85791 -18.73503 75.5922 0 0 0
594 1 -49.109 -49.43199 44.466 0 0 0
3582 1 -47.49322 -23.82198 88.932 0 0 0
3576 1 -53.01761 -20.008 82.2621 0 0 0
3570 1 -49.33516 -22.55155 91.1553 0 0 0
3564 1 -54.85791 -18.73503 84.4854 0 0 0
3558 1 -54.85791 -18.73503 88.932 0 0 0
600 1 -43.61802 -53.24773 51.1359 0 0 0
3552 1 -39.15284 -35.28659 2.2233 0 0 0
3546 1 -41.92747 -31.46563 0 0 0 0
3540 1 -41.92747 -31.46563 4.4466 0 0 0
3534 1 -39.15284 -35.28659 15.5631 0 0 0
3528 1 -43.76763 -30.19758 6.6699 0 0 0
606 1 -54.60471 -45.61661 33.3495 0 0 0
3522 1 -49.28942 -26.38978 0 0 0 0
3516 1 -41.92747 -31.46563 13.3398 0 0 0
3510 1 -47.44882 -27.65972 6.6699 0 0 0
3504 1 -52.97002 -23.84756 0 0 0 0
3498 1 -41.92747 -31.46563 17.7864 0 0 0
612 1 -49.109 -49.43199 40.0194 0 0 0
3492 1 -47.44882 -27.65972 11.1165 0 0 0
3486 1 -52.97002 -23.84756 4.4466 0 0 0
3480 1 -40.99099 -34.01883 26.6796 0 0 0
3474 1 -46.5087 -30.21335 20.0097 0 0 0
3468 1 -52.02816 -26.40287 13.3398 0 0 0
618 1 -43.61802 -53.24773 46.6893 0 0 0
3462 1 -57.54556 -22.58605 6.6699 0 0 0
3456 1 -42.82979 -32.7508 28.9029 0 0 0
3450 1 -48.34851 -28.94384 22.233 0 0 0
3444 1 -53.86766 -25.13124 15.5631 0 0 0
3438 1 -58.48781 -20.02866 6.6699 0 0 0
624 1 -54.60471 -45.61661 28.9029 0 0 0
3432 1 -44.66908 -31.48227 31.1262 0 0 0
3426 1 -50.18844 -27.6737 24.4563 0 0 0
3420 1 -55.70682 -23.859 17.7864 0 0 0
3414 1 -40.99099 -34.01883 40.0194 0 0 0
3408 1 -46.5087 -30.21335 33.3495 0 0 0
630 1 -49.109 -49.43199 35.5728 0 0 0
3402 1 -52.02816 -26.40287 26.6796 0 0 0
3396 1 -57.54556 -22.58605 20.0097 0 0 0
3390 1 -42.82979 -32.7508 42.2427 0 0 0
3384 1 -48.34851 -28.94384 35.5728 0 0 0
3378 1 -53.86766 -25.13124 28.9029 0 0 0
636 1 -43.61802 -53.24773 42.2427 0 0 0
3372 1 -58.48781 -20.02866 20.0097 0 0 0
3366 1 -44.66908 -31.48227 44.466 0 0 0
3360 1 -50.18844 -27.6737 37.7961 0 0 0
3354 1 -55.70682 -23.859 31.1262 0 0 0
3348 1 -40.99099 -34.01883 53.3592 0 0 0
642 1 -54.60471 -45.61661 24.4563 0 0 0
3342 1 -46.5087 -30.21335 46.6893 0 0 0
3336 1 -52.02816 -26.40287 40.0194 0 0 0
3330 1 -57.54556 -22.58605 33.3495 0 0 0
3324 1 -42.82979 -32.7508 55.5825 0 0 0
3318 1 -48.34851 -28.94384 48.9126 0 0 0
648 1 -49.109 -49.43199 31.1262 0 0 0
3312 1 -53.86766 -25.13124 42.2427 0 0 0
3306 1 -58.48781 -20.02866 33.3495 0 0 0
3300 1 -44.66908 -31.48227 57.8058 0 0 0
3294 1 -50.18844 -27.6737 51.1359 0 0 0
3288 1 -55.70682 -23.859 44.466 0 0 0
654 1 -43.61802 -53.24773 37.7961 0 0 0
3282 1 -40.99099 -34.01883 66.699 0 0 0
3276 1 -46.5087 -30.21335 60.0291 0 0 0
3270 1 -52.02816 -26.40287 53.3592 0 0 0
3264 1 -57.54556 -22.58605 46.6893 0 0 0
3258 1 -42.82979 -32.7508 68.9223 0 0 0
660 1 -54.60471 -45.61661 20.0097 0 0 0
3252 1 -48.34851 -28.94384 62.2524 0 0 0
3246 1 -53.86766 -25.13124 55.5825 0 0 0
3240 1 -58.48781 -20.02866 46.6893 0 0 0
3234 1 -44.66908 -31.48227 71.1456 0 0 0
3228 1 -50.18844 -27.6737 64.4757 0 0 0
666 1 -49.109 -49.43199 26.6796 0 0 0
3222 1 -55.70682 -23.859 57.8058 0 0 0
3216 1 -40.99099 -34.01883 80.0388 0 0 0
3210 1 -46.5087 -30.21335 73.3689 0 0 0
3204 1 -52.02816 -26.40287 66.699 0 0 0
3198 1 -57.54556 -22.58605 60.0291 0 0 0
672 1 -43.61802 -53.24773 33.3495 0 0 0
3192 1 -42.82979 -32.7508 82.2621 0 0 0
3186 1 -48.34851 -28.94384 75.5922 0 0 0
3180 1 -53.86766 -25.13124 68.9223 0 0 0
3174 1 -58.48781 -20.02866 60.0291 0 0 0
3168 1 -44.66908 -31.48227 84.4854 0 0 0
678 1 -54.60471 -45.61661 15.5631 0 0 0
3162 1 -50.18844 -27.6737 77.8155 0 0 0
3156 1 -55.70682 -23.859 71.1456 0 0 0
3150 1 -42.82979 -32.7508 91.1553 0 0 0
3144 1 -48.34851 -28.94384 84.4854 0 0 0
3138 1 -53.86766 -25.13124 77.8155 0 0 0
684 1 -49.109 -49.43199 22.233 0 0 0
3132 1 -58.48781 -20.02866 68.9223 0 0 0
3126 1 -50.18844 -27.6737 86.7087 0 0 0
3120 1 -55.70682 -23.859 80.0388 0 0 0
3114 1 -50.18844 -27.6737 91.1553 0 0 0
3108 1 -55.70682 -23.859 84.4854 0 0 0
690 1 -43.61802 -53.24773 28.9029 0 0 0
3102 1 -53.86766 -25.13124 91.1553 0 0 0
3096 1 -58.48781 -20.02866 82.2621 0 0 0
3090 1 -39.12574 -39.1272 0 0 0 0
3084 1 -40.96157 -37.85862 6.6699 0 0 0
3078 1 -46.47304 -34.05191 0 0 0 0
696 1 -54.60471 -45.61661 11.1165 0 0 0
3072 1 -44.63534 -35.32105 6.6699 0 0 0
3066 1 -50.14948 -31.51225 0 0 0 0
3060 1 -44.63534 -35.32105 11.1165 0 0 0
3054 1 -50.14948 -31.51225 4.4466 0 0 0
3048 1 -40.96157 -37.85862 20.0097 0 0 0
702 1 -49.109 -49.43199 17.7864 0 0 0
3042 1 -46.47304 -34.05191 13.3398 0 0 0
3036 1 -51.98787 -30.24169 6.6699 0 0 0
3030 1 -57.50249 -26.42641 0 0 0 0
3024 1 -44.63534 -35.32105 20.0097 0 0 0
3018 1 -50.14948 -31.51225 13.3398 0 0 0
708 1 -43.61802 -53.24773 24.4563 0 0 0
3012 1 -55.66448 -27.69879 6.6699 0 0 0
3006 1 -40.96157 -37.85862 28.9029 0 0 0
3000 1 -46.47304 -34.05191 22.233 0 0 0
2994 1 -51.98787 -30.24169 15.5631 0 0 0
2988 1 -57.50249 -26.42641 8.8932 0 0 0
714 1 -54.60471 -45.61661 6.6699 0 0 0
2982 1 -42.79814 -36.58988 31.1262 0 0 0
2976 1 -48.31109 -32.78237 24.4563 0 0 0
2970 1 -53.82624 -28.97055 17.7864 0 0 0
2964 1 -58.44266 -23.86968 8.8932 0 0 0
2958 1 -44.63534 -35.32105 33.3495 0 0 0
720 1 -49.109 -49.43199 13.3398 0 0 0
2952 1 -50.14948 -31.51225 26.6796 0 0 0
2946 1 -55.66448 -27.69879 20.0097 0 0 0
2940 1 -40.96157 -37.85862 42.2427 0 0 0
2934 1 -46.47304 -34.05191 35.5728 0 0 0
2928 1 -51.98787 -30.24169 28.9029 0 0 0
726 1 -43.61802 -53.24773 20.0097 0 0 0
2922 1 -57.50249 -26.42641 22.233 0 0 0
2916 1 -42.79814 -36.58988 44.466 0 0 0
2910 1 -48.31109 -32.78237 37.7961 0 0 0
2904 1 -53.82624 -28.97055 31.1262 0 0 0
2898 1 -58.44266 -23.86968 22.233 0 0 0
732 1 -55.50928 -46.90165 4.4466 0 0 0
2892 1 -44.63534 -35.32105 46.6893 0 0 0
2886 1 -50.14948 -31.51225 40.0194 0 0 0
2880 1 -55.66448 -27.69879 33.3495 0 0 0
2874 1 -40.96157 -37.85862 55.5825 0 0 0
2868 1 -46.47304 -34.05191 48.9126 0 0 0
738 1 -50.0149 -50.71782 11.1165 0 0 0
2862 1 -51.98787 -30.24169 42.2427 0 0 0
2856 1 -57.50249 -26.42641 35.5728 0 0 0
2850 1 -42.79814 -36.58988 57.8058 0 0 0
2844 1 -48.31109 -32.78237 51.1359 0 0 0
2838 1 -53.82624 -28.97055 44.466 0 0 0