ITEM: TIMESTEP
0
ITEM: NUMBER OF ATOMS
74225
ITEM: BOX BOUNDS pp pp pp
-0.0000000000000000e+00 1.1436496096672549e+02
-4.4465999812982950e+01 1.3784459942024714e+02
-0.0000000000000000e+00 1.0782431923960856e+02
ITEM: ATOMS id type x y z
1 1 0.90766 15.56310 106.54100 
2 1 0.90766 11.11650 106.54100 
3 1 0.90766 6.66990 106.54100 
4 1 0.90766 2.22330 106.54100 
5 1 0.90766 13.33980 102.69000 
6 1 0.00000 15.56310 103.97300 
7 1 2.72298 15.56310 103.97300 
8 1 0.90766 8.89320 102.69000 
9 1 -0.00000 11.11650 103.97300 
10 1 2.72298 11.11650 103.97300 
11 1 1.81532 13.33980 105.25700 
12 1 4.53829 13.33980 105.25700 
13 1 3.63063 15.56310 106.54100 
14 1 6.35361 15.56310 106.54100 
15 1 0.90766 4.44660 102.69000 
16 1 -0.00000 6.66990 103.97300 
17 1 2.72298 6.66990 103.97300 
18 1 1.81532 8.89320 105.25700 
19 1 4.53829 8.89320 105.25700 
20 1 3.63063 11.11650 106.54100 
21 1 6.35361 11.11650 106.54100 
22 1 0.90766 -0.00000 102.69000 
23 1 -0.00000 2.22330 103.97300 
24 1 2.72298 2.22330 103.97300 
25 1 1.81532 4.44660 105.25700 
26 1 4.53829 4.44660 105.25700 
27 1 3.63063 6.66990 106.54100 
28 1 6.35361 6.66990 106.54100 
29 1 1.81532 -0.00000 105.25700 
30 1 4.53829 -0.00000 105.25700 
31 1 3.63063 2.22330 106.54100 
32 1 6.35361 2.22330 106.54100 
33 1 0.90766 15.56310 98.83900 
34 1 0.90766 11.11650 98.83900 
35 1 -0.00000 13.33980 100.12300 
36 1 2.72298 13.33980 100.12300 
37 1 1.81532 15.56310 101.40600 
38 1 4.53829 15.56310 101.40600 
39 1 0.90766 6.66990 98.83900 
40 1 -0.00000 8.89320 100.12300 
41 1 2.72298 8.89320 100.12300 
42 1 1.81532 11.11650 101.40600 
43 1 4.53829 11.11650 101.40600 
44 1 3.63063 13.33980 102.69000 
45 1 6.35361 13.33980 102.69000 
46 1 5.44595 15.56310 103.97300 
47 1 8.16893 15.56310 103.97300 
48 1 0.90766 2.22330 98.83900 
49 1 -0.00000 4.44660 100.12300 
50 1 2.72298 4.44660 100.12300 
51 1 1.81532 6.66990 101.40600 
52 1 4.53829 6.66990 101.40600 
53 1 3.63063 8.89320 102.69000 
54 1 6.35361 8.89320 102.69000 
55 1 5.44595 11.11650 103.97300 
56 1 8.16893 11.11650 103.97300 
57 1 7.26127 13.33980 105.25700 
58 1 9.98424 13.33980 105.25700 
59 1 9.07658 15.56310 106.54100 
60 1 11.79960 15.56310 106.54100 
61 1 -0.00000 0.00000 100.12300 
62 1 2.72298 -0.00000 100.12300 
63 1 1.81532 2.22330 101.40600 
64 1 4.53829 2.22330 101.40600 
65 1 3.63063 4.44660 102.69000 
66 1 6.35361 4.44660 102.69000 
67 1 5.44595 6.66990 103.97300 
68 1 8.16893 6.66990 103.97300 
69 1 7.26127 8.89320 105.25700 
70 1 9.98424 8.89320 105.25700 
71 1 9.07658 11.11650 106.54100 
72 1 11.79960 11.11650 106.54100 
73 1 3.63063 -0.00000 102.69000 
74 1 6.35361 -0.00000 102.69000 
75 1 5.44595 2.22330 103.97300 
76 1 8.16893 2.22330 103.97300 
77 1 7.26127 4.44660 105.25700 
78 1 9.98424 4.44660 105.25700 
79 1 9.07658 6.66990 106.54100 
80 1 11.79960 6.66990 106.54100 
81 1 7.26127 0.00000 105.25700 
82 1 9.98424 0.00000 105.25700 
83 1 9.07658 2.22330 106.54100 
84 1 11.79960 2.22330 106.54100 
85 1 0.90766 13.33980 94.98810 
86 1 0.00000 15.56310 96.27170 
87 1 2.72298 15.56310 96.27170 
88 1 0.90766 8.89320 94.98810 
89 1 0.00000 11.11650 96.27170 
90 1 2.72298 11.11650 96.27170 
91 1 1.81532 13.33980 97.55530 
92 1 4.53829 13.33980 97.55530 
93 1 3.63063 15.56310 98.83900 
94 1 6.35361 15.56310 98.83900 
95 1 0.90766 4.44660 94.98810 
96 1 -0.00000 6.66990 96.27170 
97 1 2.72298 6.66990 96.27170 
98 1 1.81532 8.89320 97.55530 
99 1 4.53829 8.89320 97.55530 
100 1 3.63063 11.11650 98.83900 
101 1 6.35361 11.11650 98.83900 
102 1 5.44595 13.33980 100.12300 
103 1 8.16893 13.33980 100.12300 
104 1 7.26127 15.56310 101.40600 
105 1 9.98424 15.56310 101.40600 
106 1 0.90766 0.00000 94.98810 
107 1 0.00000 2.22330 96.27170 
108 1 2.72298 2.22330 96.27170 
109 1 1.81532 4.44660 97.55530 
110 1 4.53829 4.44660 97.55530 
111 1 3.63063 6.66990 98.83900 
112 1 6.35361 6.66990 98.83900 
113 1 5.44595 8.89320 100.12300 
114 1 8.16893 8.89320 100.12300 
115 1 7.26127 11.11650 101.40600 
116 1 9.98424 11.11650 101.40600 
117 1 9.07658 13.33980 102.69000 
118 1 11.79960 13.33980 102.69000 
119 1 10.89190 15.56310 103.97300 
120 1 13.61490 15.56310 103.97300 
121 1 1.81532 0.00000 97.55530 
122 1 4.53829 -0.00000 97.55530 
123 1 3.63063 2.22330 98.83900 
124 1 6.35361 2.22330 98.83900 
125 1 5.44595 4.44660 100.12300 
126 1 8.16893 4.44660 100.12300 
127 1 7.26127 6.66990 101.40600 
128 1 9.98424 6.66990 101.40600 
129 1 9.07658 8.89320 102.69000 
130 1 11.79960 8.89320 102.69000 
131 1 10.89190 11.11650 103.97300 
132 1 13.61490 11.11650 103.97300 
133 1 12.70720 13.33980 105.25700 
134 1 15.43020 13.33980 105.25700 
135 1 14.52250 15.56310 106.54100 
136 1 17.24550 15.56310 106.54100 
137 1 5.44595 -0.00000 100.12300 
138 1 8.16893 -0.00000 100.12300 
139 1 7.26127 2.22330 101.40600 
140 1 9.98424 2.22330 101.40600 
141 1 9.07658 4.44660 102.69000 
142 1 11.79960 4.44660 102.69000 
143 1 10.89190 6.66990 103.97300 
144 1 13.61490 6.66990 103.97300 
145 1 12.70720 8.89320 105.25700 
146 1 15.43020 8.89320 105.25700 
147 1 14.52250 11.11650 106.54100 
148 1 17.24550 11.11650 106.54100 
149 1 9.07658 0.00000 102.69000 
150 1 11.79960 0.00000 102.69000 
151 1 10.89190 2.22330 103.97300 
152 1 13.61490 2.22330 103.97300 
153 1 12.70720 4.44660 105.25700 
154 1 15.43020 4.44660 105.25700 
155 1 14.52250 6.66990 106.54100 
156 1 17.24550 6.66990 106.54100 
157 1 12.70720 -0.00000 105.25700 
158 1 15.43020 0.00000 105.25700 
159 1 14.52250 2.22330 106.54100 
160 1 17.24550 2.22330 106.54100 
161 1 0.90766 15.56310 91.13720 
162 1 0.90766 11.11650 91.13720 
163 1 -0.00000 13.33980 92.42080 
164 1 2.72298 13.33980 92.42080 
165 1 1.81532 15.56310 93.70450 
166 1 4.53829 15.56310 93.70450 
167 1 0.90766 6.66990 91.13720 
168 1 -0.00000 8.89320 92.42080 
169 1 2.72298 8.89320 92.42080 
170 1 1.81532 11.11650 93.70450 
171 1 4.53829 11.11650 93.70450 
172 1 3.63063 13.33980 94.98810 
173 1 6.35361 13.33980 94.98810 
174 1 5.44595 15.56310 96.27170 
175 1 8.16893 15.56310 96.27170 
176 1 0.90766 2.22330 91.13720 
177 1 0.00000 4.44660 92.42080 
178 1 2.72298 4.44660 92.42080 
179 1 1.81532 6.66990 93.70450 
180 1 4.53829 6.66990 93.70450 
181 1 3.63063 8.89320 94.98810 
182 1 6.35361 8.89320 94.98810 
183 1 5.44595 11.11650 96.27170 
184 1 8.16893 11.11650 96.27170 
185 1 7.26127 13.33980 97.55530 
186 1 9.98424 13.33980 97.55530 
187 1 9.07658 15.56310 98.83900 
188 1 11.79960 15.56310 98.83900 
189 1 0.00000 -0.00000 92.42080 
190 1 2.72298 0.00000 92.42080 
191 1 1.81532 2.22330 93.70450 
192 1 4.53829 2.22330 93.70450 
193 1 3.63063 4.44660 94.98810 
194 1 6.35361 4.44660 94.98810 
195 1 5.44595 6.66990 96.27170 
196 1 8.16893 6.66990 96.27170 
197 1 7.26127 8.89320 97.55530 
198 1 9.98424 8.89320 97.55530 
199 1 9.07658 11.11650 98.83900 
200 1 11.79960 11.11650 98.83900 
201 1 10.89190 13.33980 100.12300 
202 1 13.61490 13.33980 100.12300 
203 1 12.70720 15.56310 101.40600 
204 1 15.43020 15.56310 101.40600 
205 1 3.63063 0.00000 94.98810 
206 1 6.35361 -0.00000 94.98810 
207 1 5.44595 2.22330 96.27170 
208 1 8.16893 2.22330 96.27170 
209 1 7.26127 4.44660 97.55530 
210 1 9.98424 4.44660 97.55530 
211 1 9.07658 6.66990 98.83900 
212 1 11.79960 6.66990 98.83900 
213 1 10.89190 8.89320 100.12300 
214 1 13.61490 8.89320 100.12300 
215 1 12.70720 11.11650 101.40600 
216 1 15.43020 11.11650 101.40600 
217 1 14.52250 13.33980 102.69000 
218 1 17.24550 13.33980 102.69000 
219 1 16.33790 15.56310 103.97300 
220 1 19.06080 15.56310 103.97300 
221 1 7.26127 -0.00000 97.55530 
222 1 9.98424 -0.00000 97.55530 
223 1 9.07658 2.22330 98.83900 
224 1 11.79960 2.22330 98.83900 
225 1 10.89190 4.44660 100.12300 
226 1 13.61490 4.44660 100.12300 
227 1 12.70720 6.66990 101.40600 
228 1 15.43020 6.66990 101.40600 
229 1 14.52250 8.89320 102.69000 
230 1 17.24550 8.89320 102.69000 
231 1 16.33790 11.11650 103.97300 
232 1 19.06080 11.11650 103.97300 
233 1 18.15320 13.33980 105.25700 
234 1 20.87610 13.33980 105.25700 
235 1 19.96850 15.56310 106.54100 
236 1 22.69150 15.56310 106.54100 
237 1 10.89190 0.00000 100.12300 
238 1 13.61490 0.00000 100.12300 
239 1 12.70720 2.22330 101.40600 
240 1 15.43020 2.22330 101.40600 
241 1 14.52250 4.44660 102.69000 
242 1 17.24550 4.44660 102.69000 
243 1 16.33790 6.66990 103.97300 
244 1 19.06080 6.66990 103.97300 
245 1 18.15320 8.89320 105.25700 
246 1 20.87610 8.89320 105.25700 
247 1 19.96850 11.11650 106.54100 
248 1 22.69150 11.11650 106.54100 
249 1 14.52250 -0.00000 102.69000 
250 1 17.24550 0.00000 102.69000 
251 1 16.33790 2.22330 103.97300 
252 1 19.06080 2.22330 103.97300 
253 1 18.15320 4.44660 105.25700 
254 1 20.87610 4.44660 105.25700 
255 1 19.96850 6.66990 106.54100 
256 1 22.69150 6.66990 106.54100 
257 1 18.15320 0.00000 105.25700 
258 1 20.87610 -0.00000 105.25700 
259 1 19.96850 2.22330 106.54100 
260 1 22.69150 2.22330 106.54100 
261 1 0.90766 13.33980 87.28640 
262 1 -0.00000 15.56310 88.57000 
263 1 2.72298 15.56310 88.57000 
264 1 0.90766 8.89320 87.28640 
265 1 -0.00000 11.11650 88.57000 
266 1 2.72298 11.11650 88.57000 
267 1 1.81532 13.33980 89.85360 
268 1 4.53829 13.33980 89.85360 
269 1 3.63063 15.56310 91.13720 
270 1 6.35361 15.56310 91.13720 
271 1 0.90766 4.44660 87.28640 
272 1 0.00000 6.66990 88.57000 
273 1 2.72298 6.66990 88.57000 
274 1 1.81532 8.89320 89.85360 
275 1 4.53829 8.89320 89.85360 
276 1 3.63063 11.11650 91.13720 
277 1 6.35361 11.11650 91.13720 
278 1 5.44595 13.33980 92.42080 
279 1 8.16893 13.33980 92.42080 
280 1 7.26127 15.56310 93.70450 
281 1 9.98424 15.56310 93.70450 
282 1 0.90766 0.00000 87.28640 
283 1 -0.00000 2.22330 88.57000 
284 1 2.72298 2.22330 88.57000 
285 1 1.81532 4.44660 89.85360 
286 1 4.53829 4.44660 89.85360 
287 1 3.63063 6.66990 91.13720 
288 1 6.35361 6.66990 91.13720 
289 1 5.44595 8.89320 92.42080 
290 1 8.16893 8.89320 92.42080 
291 1 7.26127 11.11650 93.70450 
292 1 9.98424 11.11650 93.70450 
293 1 9.07658 13.33980 94.98810 
294 1 11.79960 13.33980 94.98810 
295 1 10.89190 15.56310 96.27170 
296 1 13.61490 15.56310 96.27170 
297 1 1.81532 -0.00000 89.85360 
298 1 4.53829 0.00000 89.85360 
299 1 3.63063 2.22330 91.13720 
300 1 6.35361 2.22330 91.13720 
301 1 5.44595 4.44660 92.42080 
302 1 8.16893 4.44660 92.42080 
303 1 7.26127 6.66990 93.70450 
304 1 9.98424 6.66990 93.70450 
305 1 9.07658 8.89320 94.98810 
306 1 11.79960 8.89320 94.98810 
307 1 10.89190 11.11650 96.27170 
308 1 13.61490 11.11650 96.27170 
309 1 12.70720 13.33980 97.55530 
310 1 15.43020 13.33980 97.55530 
311 1 14.52250 15.56310 98.83900 
312 1 17.24550 15.56310 98.83900 
313 1 5.44595 0.00000 92.42080 
314 1 8.16893 -0.00000 92.42080 
315 1 7.26127 2.22330 93.70450 
316 1 9.98424 2.22330 93.70450 
317 1 9.07658 4.44660 94.98810 
318 1 11.79960 4.44660 94.98810 
319 1 10.89190 6.66990 96.27170 
320 1 13.61490 6.66990 96.27170 
321 1 12.70720 8.89320 97.55530 
322 1 15.43020 8.89320 97.55530 
323 1 14.52250 11.11650 98.83900 
324 1 17.24550 11.11650 98.83900 
325 1 16.33790 13.33980 100.12300 
326 1 19.06080 13.33980 100.12300 
327 1 18.15320 15.56310 101.40600 
328 1 20.87610 15.56310 101.40600 
329 1 9.07658 -0.00000 94.98810 
330 1 11.79960 -0.00000 94.98810 
331 1 10.89190 2.22330 96.27170 
332 1 13.61490 2.22330 96.27170 
333 1 12.70720 4.44660 97.55530 
334 1 15.43020 4.44660 97.55530 
335 1 14.52250 6.66990 98.83900 
336 1 17.24550 6.66990 98.83900 
337 1 16.33790 8.89320 100.12300 
338 1 19.06080 8.89320 100.12300 
339 1 18.15320 11.11650 101.40600 
340 1 20.87610 11.11650 101.40600 
341 1 19.96850 13.33980 102.69000 
342 1 22.69150 13.33980 102.69000 
343 1 21.78380 15.56310 103.97300 
344 1 24.50680 15.56310 103.97300 
345 1 12.70720 0.00000 97.55530 
346 1 15.43020 0.00000 97.55530 
347 1 14.52250 2.22330 98.83900 
348 1 17.24550 2.22330 98.83900 
349 1 16.33790 4.44660 100.12300 
350 1 19.06080 4.44660 100.12300 
351 1 18.15320 6.66990 101.40600 
352 1 20.87610 6.66990 101.40600 
353 1 19.96850 8.89320 102.69000 
354 1 22.69150 8.89320 102.69000 
355 1 21.78380 11.11650 103.97300 
356 1 24.50680 11.11650 103.97300 
357 1 23.59910 13.33980 105.25700 
358 1 26.32210 13.33980 105.25700 
359 1 25.41440 15.56310 106.54100 
360 1 28.13740 15.56310 106.54100 
361 1 16.33790 -0.00000 100.12300 
362 1 19.06080 0.00000 100.12300 
363 1 18.15320 2.22330 101.40600 
364 1 20.87610 2.22330 101.40600 
365 1 19.96850 4.44660 102.69000 
366 1 22.69150 4.44660 102.69000 
367 1 21.78380 6.66990 103.97300 
368 1 24.50680 6.66990 103.97300 
369 1 23.59910 8.89320 105.25700 
370 1 26.32210 8.89320 105.25700 
371 1 25.41440 11.11650 106.54100 
372 1 28.13740 11.11650 106.54100 
373 1 19.96850 0.00000 102.69000 
374 1 22.69150 -0.00000 102.69000 
375 1 21.78380 2.22330 103.97300 
376 1 24.50680 2.22330 103.97300 
377 1 23.59910 4.44660 105.25700 
378 1 26.32210 4.44660 105.25700 
379 1 25.41440 6.66990 106.54100 
380 1 28.13740 6.66990 106.54100 
381 1 23.59910 -0.00000 105.25700 
382 1 26.32210 -0.00000 105.25700 
383 1 25.41440 2.22330 106.54100 
384 1 28.13740 2.22330 106.54100 
385 1 0.90766 15.56310 83.43550 
386 1 0.90766 11.11650 83.43550 
387 1 0.00000 13.33980 84.71910 
388 1 2.72298 13.33980 84.71910 
389 1 1.81532 15.56310 86.00270 
390 1 4.53829 15.56310 86.00270 
391 1 0.90766 6.66990 83.43550 
392 1 0.00000 8.89320 84.71910 
393 1 2.72298 8.89320 84.71910 
394 1 1.81532 11.11650 86.00270 
395 1 4.53829 11.11650 86.00270 
396 1 3.63063 13.33980 87.28640 
397 1 6.35361 13.33980 87.28640 
398 1 5.44595 15.56310 88.57000 
399 1 8.16893 15.56310 88.57000 
400 1 0.90766 2.22330 83.43550 
401 1 0.00000 4.44660 84.71910 
402 1 2.72298 4.44660 84.71910 
403 1 1.81532 6.66990 86.00270 
404 1 4.53829 6.66990 86.00270 
405 1 3.63063 8.89320 87.28640 
406 1 6.35361 8.89320 87.28640 
407 1 5.44595 11.11650 88.57000 
408 1 8.16893 11.11650 88.57000 
409 1 7.26127 13.33980 89.85360 
410 1 9.98424 13.33980 89.85360 
411 1 9.07658 15.56310 91.13720 
412 1 11.79960 15.56310 91.13720 
413 1 0.00000 -0.00000 84.71910 
414 1 2.72298 0.00000 84.71910 
415 1 1.81532 2.22330 86.00270 
416 1 4.53829 2.22330 86.00270 
417 1 3.63063 4.44660 87.28640 
418 1 6.35361 4.44660 87.28640 
419 1 5.44595 6.66990 88.57000 
420 1 8.16893 6.66990 88.57000 
421 1 7.26127 8.89320 89.85360 
422 1 9.98424 8.89320 89.85360 
423 1 9.07658 11.11650 91.13720 
424 1 11.79960 11.11650 91.13720 
425 1 10.89190 13.33980 92.42080 
426 1 13.61490 13.33980 92.42080 
427 1 12.70720 15.56310 93.70450 
428 1 15.43020 15.56310 93.70450 
429 1 3.63063 -0.00000 87.28640 
430 1 6.35361 0.00000 87.28640 
431 1 5.44595 2.22330 88.57000 
432 1 8.16893 2.22330 88.57000 
433 1 7.26127 4.44660 89.85360 
434 1 9.98424 4.44660 89.85360 
435 1 9.07658 6.66990 91.13720 
436 1 11.79960 6.66990 91.13720 
437 1 10.89190 8.89320 92.42080 
438 1 13.61490 8.89320 92.42080 
439 1 12.70720 11.11650 93.70450 
440 1 15.43020 11.11650 93.70450 
441 1 14.52250 13.33980 94.98810 
442 1 17.24550 13.33980 94.98810 
443 1 16.33790 15.56310 96.27170 
444 1 19.06080 15.56310 96.27170 
445 1 7.26127 0.00000 89.85360 
446 1 9.98424 -0.00000 89.85360 
447 1 9.07658 2.22330 91.13720 
448 1 11.79960 2.22330 91.13720 
449 1 10.89190 4.44660 92.42080 
450 1 13.61490 4.44660 92.42080 
451 1 12.70720 6.66990 93.70450 
452 1 15.43020 6.66990 93.70450 
453 1 14.52250 8.89320 94.98810 
454 1 17.24550 8.89320 94.98810 
455 1 16.33790 11.11650 96.27170 
456 1 19.06080 11.11650 96.27170 
457 1 18.15320 13.33980 97.55530 
458 1 20.87610 13.33980 97.55530 
459 1 19.96850 15.56310 98.83900 
460 1 22.69150 15.56310 98.83900 
461 1 10.89190 -0.00000 92.42080 
462 1 13.61490 -0.00000 92.42080 
463 1 12.70720 2.22330 93.70450 
464 1 15.43020 2.22330 93.70450 
465 1 14.52250 4.44660 94.98810 
466 1 17.24550 4.44660 94.98810 
467 1 16.33790 6.66990 96.27170 
468 1 19.06080 6.66990 96.27170 
469 1 18.15320 8.89320 97.55530 
470 1 20.87610 8.89320 97.55530 
471 1 19.96850 11.11650 98.83900 
472 1 22.69150 11.11650 98.83900 
473 1 21.78380 13.33980 100.12300 
474 1 24.50680 13.33980 100.12300 
475 1 23.59910 15.56310 101.40600 
476 1 26.32210 15.56310 101.40600 
477 1 14.52250 0.00000 94.98810 
478 1 17.24550 0.00000 94.98810 
479 1 16.33790 2.22330 96.27170 
480 1 19.06080 2.22330 96.27170 
481 1 18.15320 4.44660 97.55530 
482 1 20.87610 4.44660 97.55530 
483 1 19.96850 6.66990 98.83900 
484 1 22.69150 6.66990 98.83900 
485 1 21.78380 8.89320 100.12300 
486 1 24.50680 8.89320 100.12300 
487 1 23.59910 11.11650 101.40600 
488 1 26.32210 11.11650 101.40600 
489 1 25.41440 13.33980 102.69000 
490 1 28.13740 13.33980 102.69000 
491 1 27.22980 15.56310 103.97300 
492 1 29.95270 15.56310 103.97300 
493 1 18.15320 -0.00000 97.55530 
494 1 20.87610 0.00000 97.55530 
495 1 19.96850 2.22330 98.83900 
496 1 22.69150 2.22330 98.83900 
497 1 21.78380 4.44660 100.12300 
498 1 24.50680 4.44660 100.12300 
499 1 23.59910 6.66990 101.40600 
500 1 26.32210 6.66990 101.40600 
501 1 25.41440 8.89320 102.69000 
502 1 28.13740 8.89320 102.69000 
503 1 27.22980 11.11650 103.97300 
504 1 29.95270 11.11650 103.97300 
505 1 29.04510 13.33980 105.25700 
506 1 31.76800 13.33980 105.25700 
507 1 30.86040 15.56310 106.54100 
508 1 33.58340 15.56310 106.54100 
509 1 21.78380 0.00000 100.12300 
510 1 24.50680 -0.00000 100.12300 
511 1 23.59910 2.22330 101.40600 
512 1 26.32210 2.22330 101.40600 
513 1 25.41440 4.44660 102.69000 
514 1 28.13740 4.44660 102.69000 
515 1 27.22980 6.66990 103.97300 
516 1 29.95270 6.66990 103.97300 
517 1 29.04510 8.89320 105.25700 
518 1 31.76800 8.89320 105.25700 
519 1 30.86040 11.11650 106.54100 
520 1 33.58340 11.11650 106.54100 
521 1 25.41440 -0.00000 102.69000 
522 1 28.13740 -0.00000 102.69000 
523 1 27.22980 2.22330 103.97300 
524 1 29.95270 2.22330 103.97300 
525 1 29.04510 4.44660 105.25700 
526 1 31.76800 4.44660 105.25700 
527 1 30.86040 6.66990 106.54100 
528 1 33.58340 6.66990 106.54100 
529 1 29.04510 0.00000 105.25700 
530 1 31.76800 -0.00000 105.25700 
531 1 30.86040 2.22330 106.54100 
532 1 33.58340 2.22330 106.54100 
533 1 0.90766 13.33980 79.58460 
534 1 -0.00000 15.56310 80.86820 
535 1 2.72298 15.56310 80.86820 
536 1 0.90766 8.89320 79.58460 
537 1 0.00000 11.11650 80.86820 
538 1 2.72298 11.11650 80.86820 
539 1 1.81532 13.33980 82.15190 
540 1 4.53829 13.33980 82.15190 
541 1 3.63063 15.56310 83.43550 
542 1 6.35361 15.56310 83.43550 
543 1 0.90766 4.44660 79.58460 
544 1 0.00000 6.66990 80.86820 
545 1 2.72298 6.66990 80.86820 
546 1 1.81532 8.89320 82.15190 
547 1 4.53829 8.89320 82.15190 
548 1 3.63063 11.11650 83.43550 
549 1 6.35361 11.11650 83.43550 
550 1 5.44595 13.33980 84.71910 
551 1 8.16893 13.33980 84.71910 
552 1 7.26127 15.56310 86.00270 
553 1 9.98424 15.56310 86.00270 
554 1 0.90766 0.00000 79.58460 
555 1 0.00000 2.22330 80.86820 
556 1 2.72298 2.22330 80.86820 
557 1 1.81532 4.44660 82.15190 
558 1 4.53829 4.44660 82.15190 
559 1 3.63063 6.66990 83.43550 
560 1 6.35361 6.66990 83.43550 
561 1 5.44595 8.89320 84.71910 
562 1 8.16893 8.89320 84.71910 
563 1 7.26127 11.11650 86.00270 
564 1 9.98424 11.11650 86.00270 
565 1 9.07658 13.33980 87.28640 
566 1 11.79960 13.33980 87.28640 
567 1 10.89190 15.56310 88.57000 
568 1 13.61490 15.56310 88.57000 
569 1 1.81532 -0.00000 82.15190 
570 1 4.53829 0.00000 82.15190 
571 1 3.63063 2.22330 83.43550 
572 1 6.35361 2.22330 83.43550 
573 1 5.44595 4.44660 84.71910 
574 1 8.16893 4.44660 84.71910 
575 1 7.26127 6.66990 86.00270 
576 1 9.98424 6.66990 86.00270 
577 1 9.07658 8.89320 87.28640 
578 1 11.79960 8.89320 87.28640 
579 1 10.89190 11.11650 88.57000 
580 1 13.61490 11.11650 88.57000 
581 1 12.70720 13.33980 89.85360 
582 1 15.43020 13.33980 89.85360 
583 1 14.52250 15.56310 91.13720 
584 1 17.24550 15.56310 91.13720 
585 1 5.44595 -0.00000 84.71910 
586 1 8.16893 0.00000 84.71910 
587 1 7.26127 2.22330 86.00270 
588 1 9.98424 2.22330 86.00270 
589 1 9.07658 4.44660 87.28640 
590 1 11.79960 4.44660 87.28640 
591 1 10.89190 6.66990 88.57000 
592 1 13.61490 6.66990 88.57000 
593 1 12.70720 8.89320 89.85360 
594 1 15.43020 8.89320 89.85360 
595 1 14.52250 11.11650 91.13720 
596 1 17.24550 11.11650 91.13720 
597 1 16.33790 13.33980 92.42080 
598 1 19.06080 13.33980 92.42080 
599 1 18.15320 15.56310 93.70450 
600 1 20.87610 15.56310 93.70450 
601 1 9.07658 0.00000 87.28640 
602 1 11.79960 -0.00000 87.28640 
603 1 10.89190 2.22330 88.57000 
604 1 13.61490 2.22330 88.57000 
605 1 12.70720 4.44660 89.85360 
606 1 15.43020 4.44660 89.85360 
607 1 14.52250 6.66990 91.13720 
608 1 17.24550 6.66990 91.13720 
609 1 16.33790 8.89320 92.42080 
610 1 19.06080 8.89320 92.42080 
611 1 18.15320 11.11650 93.70450 
612 1 20.87610 11.11650 93.70450 
613 1 19.96850 13.33980 94.98810 
614 1 22.69150 13.33980 94.98810 
615 1 21.78380 15.56310 96.27170 
616 1 24.50680 15.56310 96.27170 
617 1 12.70720 -0.00000 89.85360 
618 1 15.43020 -0.00000 89.85360 
619 1 14.52250 2.22330 91.13720 
620 1 17.24550 2.22330 91.13720 
621 1 16.33790 4.44660 92.42080 
622 1 19.06080 4.44660 92.42080 
623 1 18.15320 6.66990 93.70450 
624 1 20.87610 6.66990 93.70450 
625 1 19.96850 8.89320 94.98810 
626 1 22.69150 8.89320 94.98810 
627 1 21.78380 11.11650 96.27170 
628 1 24.50680 11.11650 96.27170 
629 1 23.59910 13.33980 97.55530 
630 1 26.32210 13.33980 97.55530 
631 1 25.41440 15.56310 98.83900 
632 1 28.13740 15.56310 98.83900 
633 1 16.33790 0.00000 92.42080 
634 1 19.06080 0.00000 92.42080 
635 1 18.15320 2.22330 93.70450 
636 1 20.87610 2.22330 93.70450 
637 1 19.96850 4.44660 94.98810 
638 1 22.69150 4.44660 94.98810 
639 1 21.78380 6.66990 96.27170 
640 1 24.50680 6.66990 96.27170 
641 1 23.59910 8.89320 97.55530 
642 1 26.32210 8.89320 97.55530 
643 1 25.41440 11.11650 98.83900 
644 1 28.13740 11.11650 98.83900 
645 1 27.22980 13.33980 100.12300 
646 1 29.95270 13.33980 100.12300 
647 1 29.04510 15.56310 101.40600 
648 1 31.76800 15.56310 101.40600 
649 1 19.96850 -0.00000 94.98810 
650 1 22.69150 0.00000 94.98810 
651 1 21.78380 2.22330 96.27170 
652 1 24.50680 2.22330 96.27170 
653 1 23.59910 4.44660 97.55530 
654 1 26.32210 4.44660 97.55530 
655 1 25.41440 6.66990 98.83900 
656 1 28.13740 6.66990 98.83900 
657 1 27.22980 8.89320 100.12300 
658 1 29.95270 8.89320 100.12300 
659 1 29.04510 11.11650 101.40600 
660 1 31.76800 11.11650 101.40600 
661 1 30.86040 13.33980 102.69000 
662 1 33.58340 13.33980 102.69000 
663 1 32.67570 15.56310 103.97300 
664 1 35.39870 15.56310 103.97300 
665 1 23.59910 0.00000 97.55530 
666 1 26.32210 -0.00000 97.55530 
667 1 25.41440 2.22330 98.83900 
668 1 28.13740 2.22330 98.83900 
669 1 27.22980 4.44660 100.12300 
670 1 29.95270 4.44660 100.12300 
671 1 29.04510 6.66990 101.40600 
672 1 31.76800 6.66990 101.40600 
673 1 30.86040 8.89320 102.69000 
674 1 33.58340 8.89320 102.69000 
675 1 32.67570 11.11650 103.97300 
676 1 35.39870 11.11650 103.97300 
677 1 34.49100 13.33980 105.25700 
678 1 37.21400 13.33980 105.25700 
679 1 36.30630 15.56310 106.54100 
680 1 39.02930 15.56310 106.54100 
681 1 27.22980 -0.00000 100.12300 
682 1 29.95270 -0.00000 100.12300 
683 1 29.04510 2.22330 101.40600 
684 1 31.76800 2.22330 101.40600 
685 1 30.86040 4.44660 102.69000 
686 1 33.58340 4.44660 102.69000 
687 1 32.67570 6.66990 103.97300 
688 1 35.39870 6.66990 103.97300 
689 1 34.49100 8.89320 105.25700 
690 1 37.21400 8.89320 105.25700 
691 1 36.30630 11.11650 106.54100 
692 1 39.02930 11.11650 106.54100 
693 1 30.86040 0.00000 102.69000 
694 1 33.58340 -0.00000 102.69000 
695 1 32.67570 2.22330 103.97300 
696 1 35.39870 2.22330 103.97300 
697 1 34.49100 4.44660 105.25700 
698 1 37.21400 4.44660 105.25700 
699 1 36.30630 6.66990 106.54100 
700 1 39.02930 6.66990 106.54100 
701 1 34.49100 -0.00000 105.25700 
702 1 37.21400 0.00000 105.25700 
703 1 36.30630 2.22330 106.54100 
704 1 39.02930 2.22330 106.54100 
705 1 0.90766 15.56310 75.73370 
706 1 0.90766 11.11650 75.73370 
707 1 0.00000 13.33980 77.01740 
708 1 2.72298 13.33980 77.01740 
709 1 1.81532 15.56310 78.30100 
710 1 4.53829 15.56310 78.30100 
711 1 0.90766 6.66990 75.73370 
712 1 0.00000 8.89320 77.01740 
713 1 2.72298 8.89320 77.01740 
714 1 1.81532 11.11650 78.30100 
715 1 4.53829 11.11650 78.30100 
716 1 3.63063 13.33980 79.58460 
717 1 6.35361 13.33980 79.58460 
718 1 5.44595 15.56310 80.86820 
719 1 8.16893 15.56310 80.86820 
720 1 0.90766 2.22330 75.73370 
721 1 -0.00000 4.44660 77.01740 
722 1 2.72298 4.44660 77.01740 
723 1 1.81532 6.66990 78.30100 
724 1 4.53829 6.66990 78.30100 
725 1 3.63063 8.89320 79.58460 
726 1 6.35361 8.89320 79.58460 
727 1 5.44595 11.11650 80.86820 
728 1 8.16893 11.11650 80.86820 
729 1 7.26127 13.33980 82.15190 
730 1 9.98424 13.33980 82.15190 
731 1 9.07658 15.56310 83.43550 
732 1 11.79960 15.56310 83.43550 
733 1 0.00000 -0.00000 77.01740 
734 1 2.72298 0.00000 77.01740 
735 1 1.81532 2.22330 78.30100 
736 1 4.53829 2.22330 78.30100 
737 1 3.63063 4.44660 79.58460 
738 1 6.35361 4.44660 79.58460 
739 1 5.44595 6.66990 80.86820 
740 1 8.16893 6.66990 80.86820 
741 1 7.26127 8.89320 82.15190 
742 1 9.98424 8.89320 82.15190 
743 1 9.07658 11.11650 83.43550 
744 1 11.79960 11.11650 83.43550 
745 1 10.89190 13.33980 84.71910 
746 1 13.61490 13.33980 84.71910 
747 1 12.70720 15.56310 86.00270 
748 1 15.43020 15.56310 86.00270 
749 1 3.63063 -0.00000 79.58460 
750 1 6.35361 0.00000 79.58460 
751 1 5.44595 2.22330 80.86820 
752 1 8.16893 2.22330 80.86820 
753 1 7.26127 4.44660 82.15190 
754 1 9.98424 4.44660 82.15190 
755 1 9.07658 6.66990 83.43550 
756 1 11.79960 6.66990 83.43550 
757 1 10.89190 8.89320 84.71910 
758 1 13.61490 8.89320 84.71910 
759 1 12.70720 11.11650 86.00270 
760 1 15.43020 11.11650 86.00270 
761 1 14.52250 13.33980 87.28640 
762 1 17.24550 13.33980 87.28640 
763 1 16.33790 15.56310 88.57000 
764 1 19.06080 15.56310 88.57000 
765 1 7.26127 -0.00000 82.15190 
766 1 9.98424 0.00000 82.15190 
767 1 9.07658 2.22330 83.43550 
768 1 11.79960 2.22330 83.43550 
769 1 10.89190 4.44660 84.71910 
770 1 13.61490 4.44660 84.71910 
771 1 12.70720 6.66990 86.00270 
772 1 15.43020 6.66990 86.00270 
773 1 14.52250 8.89320 87.28640 
774 1 17.24550 8.89320 87.28640 
775 1 16.33790 11.11650 88.57000 
776 1 19.06080 11.11650 88.57000 
777 1 18.15320 13.33980 89.85360 
778 1 20.87610 13.33980 89.85360 
779 1 19.96850 15.56310 91.13720 
780 1 22.69150 15.56310 91.13720 
781 1 10.89190 0.00000 84.71910 
782 1 13.61490 -0.00000 84.71910 
783 1 12.70720 2.22330 86.00270 
784 1 15.43020 2.22330 86.00270 
785 1 14.52250 4.44660 87.28640 
786 1 17.24550 4.44660 87.28640 
787 1 16.33790 6.66990 88.57000 
788 1 19.06080 6.66990 88.57000 
789 1 18.15320 8.89320 89.85360 
790 1 20.87610 8.89320 89.85360 
791 1 19.96850 11.11650 91.13720 
792 1 22.69150 11.11650 91.13720 
793 1 21.78380 13.33980 92.42080 
794 1 24.50680 13.33980 92.42080 
795 1 23.59910 15.56310 93.70450 
796 1 26.32210 15.56310 93.70450 
797 1 14.52250 -0.00000 87.28640 
798 1 17.24550 -0.00000 87.28640 
799 1 16.33790 2.22330 88.57000 
800 1 19.06080 2.22330 88.57000 
801 1 18.15320 4.44660 89.85360 
802 1 20.87610 4.44660 89.85360 
803 1 19.96850 6.66990 91.13720 
804 1 22.69150 6.66990 91.13720 
805 1 21.78380 8.89320 92.42080 
806 1 24.50680 8.89320 92.42080 
807 1 23.59910 11.11650 93.70450 
808 1 26.32210 11.11650 93.70450 
809 1 25.41440 13.33980 94.98810 
810 1 28.13740 13.33980 94.98810 
811 1 27.22980 15.56310 96.27170 
812 1 29.95270 15.56310 96.27170 
813 1 18.15320 0.00000 89.85360 
814 1 20.87610 0.00000 89.85360 
815 1 19.96850 2.22330 91.13720 
816 1 22.69150 2.22330 91.13720 
817 1 21.78380 4.44660 92.42080 
818 1 24.50680 4.44660 92.42080 
819 1 23.59910 6.66990 93.70450 
820 1 26.32210 6.66990 93.70450 
821 1 25.41440 8.89320 94.98810 
822 1 28.13740 8.89320 94.98810 
823 1 27.22980 11.11650 96.27170 
824 1 29.95270 11.11650 96.27170 
825 1 29.04510 13.33980 97.55530 
826 1 31.76800 13.33980 97.55530 
827 1 30.86040 15.56310 98.83900 
828 1 33.58340 15.56310 98.83900 
829 1 21.78380 -0.00000 92.42080 
830 1 24.50680 0.00000 92.42080 
831 1 23.59910 2.22330 93.70450 
832 1 26.32210 2.22330 93.70450 
833 1 25.41440 4.44660 94.98810 
834 1 28.13740 4.44660 94.98810 
835 1 27.22980 6.66990 96.27170 
836 1 29.95270 6.66990 96.27170 
837 1 29.04510 8.89320 97.55530 
838 1 31.76800 8.89320 97.55530 
839 1 30.86040 11.11650 98.83900 
840 1 33.58340 11.11650 98.83900 
841 1 32.67570 13.33980 100.12300 
842 1 35.39870 13.33980 100.12300 
843 1 34.49100 15.56310 101.40600 
844 1 37.21400 15.56310 101.40600 
845 1 25.41440 0.00000 94.98810 
846 1 28.13740 -0.00000 94.98810 
847 1 27.22980 2.22330 96.27170 
848 1 29.95270 2.22330 96.27170 
849 1 29.04510 4.44660 97.55530 
850 1 31.76800 4.44660 97.55530 
851 1 30.86040 6.66990 98.83900 
852 1 33.58340 6.66990 98.83900 
853 1 32.67570 8.89320 100.12300 
854 1 35.39870 8.89320 100.12300 
855 1 34.49100 11.11650 101.40600 
856 1 37.21400 11.11650 101.40600 
857 1 36.30630 13.33980 102.69000 
858 1 39.02930 13.33980 102.69000 
859 1 38.12170 15.56310 103.97300 
860 1 40.84460 15.56310 103.97300 
861 1 29.04510 -0.00000 97.55530 
862 1 31.76800 -0.00000 97.55530 
863 1 30.86040 2.22330 98.83900 
864 1 33.58340 2.22330 98.83900 
865 1 32.67570 4.44660 100.12300 
866 1 35.39870 4.44660 100.12300 
867 1 34.49100 6.66990 101.40600 
868 1 37.21400 6.66990 101.40600 
869 1 36.30630 8.89320 102.69000 
870 1 39.02930 8.89320 102.69000 
871 1 38.12170 11.11650 103.97300 
872 1 40.84460 11.11650 103.97300 
873 1 39.93700 13.33980 105.25700 
874 1 42.65990 13.33980 105.25700 
875 1 41.75230 15.56310 106.54100 
876 1 44.47530 15.56310 106.54100 
877 1 32.67570 0.00000 100.12300 
878 1 35.39870 -0.00000 100.12300 
879 1 34.49100 2.22330 101.40600 
880 1 37.21400 2.22330 101.40600 
881 1 36.30630 4.44660 102.69000 
882 1 39.02930 4.44660 102.69000 
883 1 38.12170 6.66990 103.97300 
884 1 40.84460 6.66990 103.97300 
885 1 39.93700 8.89320 105.25700 
886 1 42.65990 8.89320 105.25700 
887 1 41.75230 11.11650 106.54100 
888 1 44.47530 11.11650 106.54100 
889 1 36.30630 -0.00000 102.69000 
890 1 39.02930 0.00000 102.69000 
891 1 38.12170 2.22330 103.97300 
892 1 40.84460 2.22330 103.97300 