ITEM: TIMESTEP
337
ITEM: NUMBER OF ATOMS
75580
ITEM: BOX BOUNDS pp pp pp
-1.1164198570561297e+02 1.1164198570561297e+02
-1.0525707354342740e+02 1.0525707354342740e+02
-0.0000000000000000e+00 9.3378599607264192e+01
ITEM: ATOMS id type x y z
6552 1 -39.6091 -4.58632 2.2233
6546 1 -39.2727 -0.74885 0
6540 1 -39.6091 -4.58632 15.5631
6534 1 -41.4551 -3.31152 17.7864
6528 1 -40.5738 -2.02512 20.0097
6 1 -58.2041 -54.6004 66.699
6522 1 -43.2986 -2.03564 24.4563
6516 1 -39.6091 -4.58632 37.7961
6510 1 -39.6091 -4.58632 42.2427
6504 1 -41.4551 -3.31152 44.466
6498 1 -43.2986 -2.03564 46.6893
12 1 -58.2041 -54.6004 40.0194
6492 1 -39.6091 -4.58632 60.0291
6486 1 -41.4551 -3.31152 62.2524
6480 1 -40.5738 -2.02512 64.4757
6474 1 -43.2986 -2.03564 68.9223
6468 1 -39.6091 -4.58632 82.2621
18 1 -58.2041 -54.6004 13.3398
6462 1 -41.4551 -3.31152 84.4854
6456 1 -40.5738 -2.02512 86.7087
6450 1 -39.5272 -8.42947 4.4466
6444 1 -40.4915 -5.87176 4.4466
6438 1 -39.5272 -8.42947 13.3398
24 1 -56.3931 -52.0297 88.932
6432 1 -44.1814 -3.3219 4.4466
6426 1 -41.3755 -7.15678 15.5631
6420 1 -46.9074 -3.33163 8.8932
6414 1 -41.3755 -7.15678 20.0097
6408 1 -46.9074 -3.33163 13.3398
30 1 -54.5627 -53.3024 86.7087
6402 1 -41.3755 -7.15678 24.4563
6396 1 -46.9074 -3.33163 17.7864
6390 1 -40.4915 -5.87176 26.6796
6384 1 -46.0232 -2.04549 20.0097
6378 1 -43.2216 -5.8828 31.1262
36 1 -54.5627 -53.3024 82.2621
6372 1 -48.7475 -2.05475 24.4563
6366 1 -42.3376 -4.59738 33.3495
6360 1 -44.7187 -0.7683 26.6796
6354 1 -42.3376 -4.59738 37.7961
6348 1 -44.7187 -0.7683 31.1262
42 1 -54.5627 -53.3024 77.8155
6342 1 -45.0655 -4.60769 42.2427
6336 1 -39.5272 -8.42947 53.3592
6330 1 -45.0655 -4.60769 46.6893
6324 1 -39.5272 -8.42947 57.8058
6318 1 -44.1814 -3.3219 48.9126
48 1 -54.5627 -53.3024 73.3689
6312 1 -41.3755 -7.15678 60.0291
6306 1 -46.9074 -3.33163 53.3592
6300 1 -41.3755 -7.15678 64.4757
6294 1 -46.9074 -3.33163 57.8058
6288 1 -41.3755 -7.15678 68.9223
54 1 -54.5627 -53.3024 68.9223
6282 1 -46.9074 -3.33163 62.2524
6276 1 -40.4915 -5.87176 71.1456
6270 1 -46.0232 -2.04549 64.4757
6264 1 -40.4915 -5.87176 75.5922
6258 1 -46.0232 -2.04549 68.9223
60 1 -54.5627 -53.3024 64.4757
6252 1 -42.3376 -4.59738 77.8155
6246 1 -44.7187 -0.7683 71.1456
6240 1 -45.0655 -4.60769 82.2621
6234 1 -41.3755 -7.15678 91.1553
6228 1 -46.9074 -3.33163 84.4854
66 1 -54.5627 -53.3024 60.0291
6222 1 -44.1814 -3.3219 88.932
6216 1 -48.7475 -2.05475 91.1553
6210 1 -41.3001 -10.998 4.4466
6204 1 -41.3001 -10.998 8.8932
6198 1 -46.837 -7.17812 2.2233
72 1 -54.5627 -53.3024 55.5825
6192 1 -43.1475 -9.72589 11.1165
6186 1 -48.6791 -5.9027 4.4466
6180 1 -41.3001 -10.998 17.7864
6174 1 -46.837 -7.17812 11.1165
6168 1 -52.3585 -3.34941 4.4466
78 1 -54.5627 -53.3024 51.1359
6162 1 -40.4129 -9.71381 20.0097
6156 1 -45.9507 -5.89308 13.3398
6150 1 -51.4717 -2.06348 6.6699
6144 1 -43.1475 -9.72589 24.4563
6138 1 -48.6791 -5.9027 17.7864
84 1 -54.5627 -53.3024 46.6893
6132 1 -54.1959 -2.07175 11.1165
6126 1 -42.2608 -8.44148 26.6796
6120 1 -47.7928 -4.61735 20.0097
6114 1 -52.8875 -0.79356 13.3398
6108 1 -44.9931 -8.45257 31.1262
90 1 -54.5627 -53.3024 42.2427
6102 1 -50.5197 -4.62643 24.4563
6096 1 -39.4509 -12.2686 42.2427
6090 1 -44.1067 -7.16784 33.3495
6084 1 -49.6331 -3.34078 26.6796
6078 1 -39.4509 -12.2686 46.6893
96 1 -54.5627 -53.3024 37.7961
6072 1 -44.1067 -7.16784 37.7961
6066 1 -49.6331 -3.34078 31.1262
6060 1 -41.3001 -10.998 48.9126
6054 1 -46.837 -7.17812 42.2427
6048 1 -52.3585 -3.34941 35.5728
102 1 -54.5627 -53.3024 33.3495
6042 1 -40.4129 -9.71381 51.1359
6036 1 -45.9507 -5.89308 44.466
6030 1 -51.4717 -2.06348 37.7961
6024 1 -42.2608 -8.44148 53.3592
6018 1 -47.7928 -4.61735 46.6893
108 1 -54.5627 -53.3024 28.9029
6012 1 -52.8875 -0.79356 40.0194
6006 1 -44.9931 -8.45257 57.8058
6000 1 -50.5197 -4.62643 51.1359
5994 1 -52.8875 -0.79356 44.466
5988 1 -44.9931 -8.45257 62.2524
114 1 -54.5627 -53.3024 24.4563
5982 1 -50.5197 -4.62643 55.5825
5976 1 -39.4509 -12.2686 73.3689
5970 1 -44.1067 -7.16784 64.4757
5964 1 -49.6331 -3.34078 57.8058
5958 1 -38.563 -10.9847 75.5922
120 1 -54.5627 -53.3024 20.0097
5952 1 -44.1067 -7.16784 68.9223
5946 1 -49.6331 -3.34078 62.2524
5940 1 -41.3001 -10.998 80.0388
5934 1 -46.837 -7.17812 73.3689
5928 1 -52.3585 -3.34941 66.699
126 1 -54.5627 -53.3024 15.5631
5922 1 -43.1475 -9.72589 82.2621
5916 1 -48.6791 -5.9027 75.5922
5910 1 -54.1959 -2.07175 68.9223
5904 1 -42.2608 -8.44148 84.4854
5898 1 -47.7928 -4.61735 77.8155
132 1 -54.5627 -53.3024 11.1165
5892 1 -50.1645 -0.78559 71.1456
5886 1 -46.837 -7.17812 86.7087
5880 1 -52.3585 -3.34941 80.0388
5874 1 -48.6791 -5.9027 88.932
5868 1 -54.1959 -2.07175 82.2621
138 1 -54.5627 -53.3024 6.6699
5862 1 -51.4717 -2.06348 86.7087
5856 1 -52.8875 -0.79356 88.932
5850 1 -39.3819 -16.105 8.8932
5844 1 -44.0354 -11.0101 0
5838 1 -42.1885 -12.2819 6.6699
144 1 -55.4686 -54.588 4.4466
5832 1 -47.7245 -8.46289 0
5826 1 -42.1885 -12.2819 11.1165
5820 1 -47.7245 -8.46289 4.4466
5814 1 -39.3819 -16.105 22.233
5808 1 -44.0354 -11.0101 13.3398
150 1 -58.2458 -46.9143 84.4854
5802 1 -49.5666 -7.18774 6.6699
5796 1 -55.0836 -3.35759 0
5790 1 -42.1885 -12.2819 20.0097
5784 1 -47.7245 -8.46289 13.3398
5778 1 -53.246 -4.63499 6.6699
156 1 -58.2458 -46.9143 80.0388
5772 1 -39.3819 -16.105 31.1262
5766 1 -44.0354 -11.0101 22.233
5760 1 -49.5666 -7.18774 15.5631
5754 1 -55.0836 -3.35759 8.8932
5748 1 -40.3401 -13.5523 31.1262
162 1 -53.6571 -52.0169 88.932
5742 1 -45.8808 -9.73704 24.4563
5736 1 -51.407 -5.91174 17.7864
5730 1 -56.9199 -2.07961 11.1165
5724 1 -44.9246 -12.2941 33.3495
5718 1 -50.4549 -8.47252 26.6796
168 1 -57.3188 -49.4719 80.0388
5712 1 -55.9721 -4.64311 20.0097
5706 1 -40.3401 -13.5523 40.0194
5700 1 -45.8808 -9.73704 33.3495
5694 1 -51.407 -5.91174 26.6796
5688 1 -56.9199 -2.07961 20.0097
174 1 -51.8269 -53.2894 86.7087
5682 1 -42.1885 -12.2819 42.2427
5676 1 -47.7245 -8.46289 35.5728
5670 1 -53.246 -4.63499 28.9029
5664 1 -39.3819 -16.105 53.3592
5658 1 -44.0354 -11.0101 44.466
180 1 -57.3188 -49.4719 75.5922
5652 1 -49.5666 -7.18774 37.7961
5646 1 -55.0836 -3.35759 31.1262
5640 1 -43.0784 -13.5657 53.3592
5634 1 -48.6129 -9.74739 46.6893
5628 1 -54.1345 -5.92027 40.0194
186 1 -51.8269 -53.2894 82.2621
5622 1 -39.3819 -16.105 62.2524
5616 1 -44.0354 -11.0101 53.3592
5610 1 -49.5666 -7.18774 46.6893
5604 1 -55.0836 -3.35759 40.0194
5598 1 -40.3401 -13.5523 62.2524
192 1 -57.3188 -49.4719 71.1456
5592 1 -45.8808 -9.73704 55.5825
5586 1 -51.407 -5.91174 48.9126
5580 1 -56.9199 -2.07961 42.2427
5574 1 -42.1885 -12.2819 64.4757
5568 1 -47.7245 -8.46289 57.8058
198 1 -51.8269 -53.2894 77.8155
5562 1 -53.246 -4.63499 51.1359
5556 1 -41.2307 -14.8361 73.3689
5550 1 -46.7695 -11.0213 66.699
5544 1 -52.2954 -7.19677 60.0291
5538 1 -57.8085 -3.36535 53.3592
204 1 -57.3188 -49.4719 66.699
5532 1 -42.1885 -12.2819 73.3689
5526 1 -47.7245 -8.46289 66.699
5520 1 -53.246 -4.63499 60.0291
5514 1 -41.2307 -14.8361 82.2621
5508 1 -46.7695 -11.0213 75.5922
210 1 -51.8269 -53.2894 73.3689
5502 1 -52.2954 -7.19677 68.9223
5496 1 -57.8085 -3.36535 62.2524
5490 1 -42.1885 -12.2819 82.2621
5484 1 -47.7245 -8.46289 75.5922
5478 1 -53.246 -4.63499 68.9223
216 1 -57.3188 -49.4719 62.2524
5472 1 -41.2307 -14.8361 91.1553
5466 1 -46.7695 -11.0213 84.4854
5460 1 -52.2954 -7.19677 77.8155
5454 1 -57.8085 -3.36535 71.1456
5448 1 -46.7695 -11.0213 88.932
222 1 -51.8269 -53.2894 68.9223
5442 1 -52.2954 -7.19677 82.2621
5436 1 -57.8085 -3.36535 75.5922
5430 1 -49.5666 -7.18774 86.7087
5424 1 -55.0836 -3.35759 80.0388
5418 1 -54.1345 -5.92027 88.932
228 1 -57.3188 -49.4719 57.8058
5412 1 -55.6105 -0.80114 80.0388
5406 1 -55.6105 -0.80114 84.4854
5400 1 -40.2746 -17.3886 2.2233
5394 1 -40.2746 -17.3886 6.6699
5388 1 -45.815 -13.578 0
234 1 -51.8269 -53.2894 64.4757
5382 1 -42.1224 -16.1197 8.8932
5376 1 -47.6594 -12.3054 2.2233
5370 1 -40.2746 -17.3886 15.5631
5364 1 -45.815 -13.578 8.8932
5358 1 -51.3442 -9.75706 2.2233
240 1 -57.3188 -49.4719 53.3592
5352 1 -40.2746 -17.3886 20.0097
5346 1 -45.815 -13.578 13.3398
5340 1 -51.3442 -9.75706 6.6699
5334 1 -56.8614 -5.92835 0
5328 1 -44.8613 -16.1332 22.233
246 1 -51.8269 -53.2894 60.0291
5322 1 -50.3929 -12.3158 15.5631
5316 1 -55.9136 -8.49008 8.8932
5310 1 -41.1685 -18.6723 31.1262
5304 1 -46.7063 -14.8619 24.4563
5298 1 -52.2344 -11.0414 17.7864
252 1 -57.3188 -49.4719 48.9126
5292 1 -57.7514 -7.21335 11.1165
5286 1 -43.0153 -17.4034 33.3495
5280 1 -48.5502 -13.5893 26.6796
5274 1 -54.0746 -9.76613 20.0097
5268 1 -58.698 -4.65081 11.1165
258 1 -51.8269 -53.2894 55.5825
5262 1 -44.8613 -16.1332 35.5728
5256 1 -50.3929 -12.3158 28.9029
5250 1 -55.9136 -8.49008 22.233
5244 1 -41.1685 -18.6723 44.466
5238 1 -46.7063 -14.8619 37.7961
264 1 -57.3188 -49.4719 44.466
5232 1 -52.2344 -11.0414 31.1262
5226 1 -57.7514 -7.21335 24.4563
5220 1 -43.0153 -17.4034 46.6893
5214 1 -48.5502 -13.5893 40.0194
5208 1 -54.0746 -9.76613 33.3495
270 1 -51.8269 -53.2894 51.1359
5202 1 -58.698 -4.65081 24.4563
5196 1 -44.8613 -16.1332 48.9126
5190 1 -50.3929 -12.3158 42.2427
5184 1 -55.9136 -8.49008 35.5728
5178 1 -41.1685 -18.6723 57.8058
276 1 -57.3188 -49.4719 40.0194
5172 1 -46.7063 -14.8619 51.1359
5166 1 -52.2344 -11.0414 44.466
5160 1 -57.7514 -7.21335 37.7961
5154 1 -43.0153 -17.4034 60.0291
5148 1 -48.5502 -13.5893 53.3592
282 1 -51.8269 -53.2894 46.6893
5142 1 -54.0746 -9.76613 46.6893
5136 1 -58.698 -4.65081 37.7961
5130 1 -44.8613 -16.1332 62.2524
5124 1 -50.3929 -12.3158 55.5825
5118 1 -55.9136 -8.49008 48.9126
288 1 -57.3188 -49.4719 35.5728
5112 1 -41.1685 -18.6723 71.1456
5106 1 -46.7063 -14.8619 64.4757
5100 1 -52.2344 -11.0414 57.8058
5094 1 -57.7514 -7.21335 51.1359
5088 1 -43.0153 -17.4034 73.3689
294 1 -51.8269 -53.2894 42.2427
5082 1 -48.5502 -13.5893 66.699
5076 1 -54.0746 -9.76613 60.0291
5070 1 -58.698 -4.65081 51.1359
5064 1 -44.8613 -16.1332 75.5922
5058 1 -50.3929 -12.3158 68.9223
300 1 -57.3188 -49.4719 31.1262
5052 1 -55.9136 -8.49008 62.2524
5046 1 -38.426 -18.6561 84.4854
5040 1 -43.9692 -14.8495 77.8155
5034 1 -49.5025 -11.0317 71.1456
5028 1 -55.0236 -7.20529 64.4757
306 1 -51.8269 -53.2894 37.7961
5022 1 -40.2746 -17.3886 86.7087
5016 1 -45.815 -13.578 80.0388
5010 1 -51.3442 -9.75706 73.3689
5004 1 -56.8614 -5.92835 66.699
4998 1 -43.9692 -14.8495 86.7087
312 1 -57.3188 -49.4719 26.6796
4992 1 -49.5025 -11.0317 80.0388
4986 1 -55.0236 -7.20529 73.3689
4980 1 -45.815 -13.578 88.932
4974 1 -51.3442 -9.75706 82.2621
4968 1 -56.8614 -5.92835 75.5922
318 1 -51.8269 -53.2894 33.3495
4962 1 -51.3442 -9.75706 86.7087
4956 1 -56.8614 -5.92835 80.0388
4950 1 -55.0236 -7.20529 86.7087
4944 1 -56.8614 -5.92835 88.932
4938 1 -40.2169 -21.224 0
324 1 -57.3188 -49.4719 22.233
4932 1 -42.0633 -19.956 2.2233
4926 1 -40.2169 -21.224 8.8932
4920 1 -45.7544 -17.4169 2.2233
4914 1 -40.2169 -21.224 13.3398
4908 1 -45.7544 -17.4169 6.6699
330 1 -51.8269 -53.2894 28.9029
4902 1 -51.2843 -13.5998 0
4896 1 -42.0633 -19.956 15.5631
4890 1 -47.5987 -16.1456 8.8932
4884 1 -53.1254 -12.3256 2.2233
4878 1 -40.2169 -21.224 22.233
336 1 -57.3188 -49.4719 17.7864
4872 1 -45.7544 -17.4169 15.5631
4866 1 -51.2843 -13.5998 8.8932
4860 1 -56.8044 -9.77466 2.2233
4854 1 -42.0633 -19.956 24.4563
4848 1 -47.5987 -16.1456 17.7864
342 1 -51.8269 -53.2894 24.4563
4842 1 -53.1254 -12.3256 11.1165
4836 1 -39.2682 -23.775 35.5728
4830 1 -43.9091 -18.687 26.6796
4824 1 -49.442 -14.8733 20.0097
4818 1 -54.9654 -11.0505 13.3398
348 1 -57.3188 -49.4719 13.3398
4812 1 -40.2169 -21.224 35.5728
4806 1 -45.7544 -17.4169 28.9029
4800 1 -51.2843 -13.5998 22.233
4794 1 -56.8044 -9.77466 15.5631
4788 1 -42.0633 -19.956 37.7961
354 1 -51.8269 -53.2894 20.0097
4782 1 -47.5987 -16.1456 31.1262
4776 1 -53.1254 -12.3256 24.4563
4770 1 -39.2682 -23.775 48.9126
4764 1 -43.9091 -18.687 40.0194
4758 1 -49.442 -14.8733 33.3495
360 1 -57.3188 -49.4719 8.8932
4752 1 -54.9654 -11.0505 26.6796
4746 1 -40.2169 -21.224 48.9126
4740 1 -45.7544 -17.4169 42.2427
4734 1 -51.2843 -13.5998 35.5728
4728 1 -56.8044 -9.77466 28.9029
366 1 -51.8269 -53.2894 15.5631
4722 1 -42.0633 -19.956 51.1359
4716 1 -47.5987 -16.1456 44.466
4710 1 -53.1254 -12.3256 37.7961
4704 1 -39.2682 -23.775 62.2524
4698 1 -43.9091 -18.687 53.3592
372 1 -57.3188 -49.4719 4.4466
4692 1 -49.442 -14.8733 46.6893
4686 1 -54.9654 -11.0505 40.0194
4680 1 -40.2169 -21.224 62.2524
4674 1 -45.7544 -17.4169 55.5825
4668 1 -51.2843 -13.5998 48.9126
378 1 -51.8269 -53.2894 11.1165
4662 1 -56.8044 -9.77466 42.2427
4656 1 -42.0633 -19.956 64.4757
4650 1 -47.5987 -16.1456 57.8058
4644 1 -53.1254 -12.3256 51.1359
4638 1 -39.2682 -23.775 75.5922
384 1 -55.4877 -50.7444 2.2233
4632 1 -43.9091 -18.687 66.699
4626 1 -49.442 -14.8733 60.0291
4620 1 -54.9654 -11.0505 53.3592
4614 1 -40.2169 -21.224 75.5922
4608 1 -45.7544 -17.4169 68.9223
390 1 -49.9971 -54.5621 8.8932
4602 1 -51.2843 -13.5998 62.2524
4596 1 -56.8044 -9.77466 55.5825
4590 1 -42.959 -21.2399 80.0388
4584 1 -48.4919 -17.4292 73.3689
4578 1 -54.0173 -13.6096 66.699
396 1 -49.9971 -54.5621 4.4466
4572 1 -58.6421 -8.49814 57.8058
4566 1 -44.804 -19.9707 82.2621
4560 1 -50.3347 -16.157 75.5922
4554 1 -55.8571 -12.3347 68.9223
4548 1 -40.2169 -21.224 88.932
402 1 -56.4375 -44.3446 88.932
4542 1 -45.7544 -17.4169 82.2621
4536 1 -51.2843 -13.5998 75.5922
4530 1 -56.8044 -9.77466 68.9223
4524 1 -45.7544 -17.4169 86.7087
4518 1 -51.2843 -13.5998 80.0388
408 1 -54.6047 -45.6166 86.7087
4512 1 -56.8044 -9.77466 73.3689
4506 1 -49.442 -14.8733 86.7087
4500 1 -54.9654 -11.0505 80.0388
4494 1 -51.2843 -13.5998 88.932
4488 1 -56.8044 -9.77466 82.2621
414 1 -56.4375 -44.3446 80.0388
4482 1 -56.8044 -9.77466 86.7087
4476 1 -39.2232 -27.6107 6.6699
4470 1 -39.2232 -27.6107 11.1165
4464 1 -43.8556 -22.5237 2.2233
4458 1 -40.1669 -25.0593 11.1165
420 1 -50.9404 -48.1602 86.7087
4452 1 -45.6997 -21.2545 4.4466
4446 1 -39.2232 -27.6107 20.0097
4440 1 -43.8556 -22.5237 11.1165
4434 1 -49.3861 -18.7129 4.4466
4428 1 -39.2232 -27.6107 24.4563
426 1 -56.4375 -44.3446 75.5922
4422 1 -43.8556 -22.5237 15.5631
4416 1 -49.3861 -18.7129 8.8932
4410 1 -54.9099 -14.8937 2.2233
4404 1 -42.9096 -25.0761 24.4563
4398 1 -48.4387 -21.2679 17.7864
432 1 -50.9404 -48.1602 82.2621
4392 1 -53.9634 -17.4513 11.1165
4386 1 -58.588 -12.3433 2.2233
4380 1 -44.7529 -23.8076 26.6796
4374 1 -50.2811 -19.9965 20.0097
4368 1 -55.8034 -16.1775 13.3398
438 1 -45.4478 -51.9757 88.932
4362 1 -41.0663 -26.3438 35.5728
4356 1 -46.596 -22.5382 28.9029
4350 1 -52.1226 -18.7244 22.233
4344 1 -57.6425 -14.9029 15.5631
4338 1 -42.9096 -25.0761 37.7961
444 1 -54.6047 -45.6166 73.3689
4332 1 -48.4387 -21.2679 31.1262
4326 1 -53.9634 -17.4513 24.4563
4320 1 -58.588 -12.3433 15.5631
4314 1 -44.7529 -23.8076 40.0194
4308 1 -50.2811 -19.9965 33.3495
450 1 -49.109 -49.432 80.0388
4302 1 -55.8034 -16.1775 26.6796
4296 1 -41.0663 -26.3438 48.9126
4290 1 -46.596 -22.5382 42.2427
4284 1 -52.1226 -18.7244 35.5728
4278 1 -57.6425 -14.9029 28.9029
456 1 -43.618 -53.2477 86.7087
4272 1 -42.9096 -25.0761 51.1359
4266 1 -48.4387 -21.2679 44.466
4260 1 -53.9634 -17.4513 37.7961
4254 1 -58.588 -12.3433 28.9029
4248 1 -44.7529 -23.8076 53.3592
462 1 -54.6047 -45.6166 68.9223
4242 1 -50.2811 -19.9965 46.6893
4236 1 -55.8034 -16.1775 40.0194
4230 1 -38.3227 -26.3259 62.2524
4224 1 -43.8556 -22.5237 55.5825
4218 1 -49.3861 -18.7129 48.9126
468 1 -49.109 -49.432 75.5922
4212 1 -54.9099 -14.8937 42.2427
4206 1 -40.1669 -25.0593 64.4757
4200 1 -45.6997 -21.2545 57.8058
4194 1 -51.2282 -17.4407 51.1359
4188 1 -56.7495 -13.6188 44.466
474 1 -43.618 -53.2477 82.2621
4182 1 -42.0113 -23.792 66.699
4176 1 -47.5432 -19.9841 60.0291
4170 1 -53.0695 -16.1676 53.3592
4164 1 -39.2232 -27.6107 77.8155
4158 1 -43.8556 -22.5237 68.9223
480 1 -54.6047 -45.6166 64.4757
4152 1 -49.3861 -18.7129 62.2524
4146 1 -54.9099 -14.8937 55.5825
4140 1 -40.1669 -25.0593 77.8155
4134 1 -45.6997 -21.2545 71.1456
4128 1 -51.2282 -17.4407 64.4757
486 1 -49.109 -49.432 71.1456
4122 1 -56.7495 -13.6188 57.8058
4116 1 -42.9096 -25.0761 82.2621
4110 1 -48.4387 -21.2679 75.5922
4104 1 -53.9634 -17.4513 68.9223
4098 1 -58.588 -12.3433 60.0291
492 1 -43.618 -53.2477 77.8155
4092 1 -44.7529 -23.8076 84.4854
4086 1 -50.2811 -19.9965 77.8155
4080 1 -55.8034 -16.1775 71.1456
4074 1 -42.9096 -25.0761 91.1553
4068 1 -48.4387 -21.2679 84.4854
498 1 -54.6047 -45.6166 60.0291
4062 1 -53.9634 -17.4513 77.8155
4056 1 -58.588 -12.3433 68.9223
4050 1 -50.2811 -19.9965 86.7087
4044 1 -55.8034 -16.1775 80.0388
4038 1 -50.2811 -19.9965 91.1553
504 1 -49.109 -49.432 66.699
4032 1 -55.8034 -16.1775 84.4854
4026 1 -53.9634 -17.4513 91.1553
4020 1 -58.588 -12.3433 82.2621
4014 1 -39.185 -31.4478 0
4008 1 -41.0256 -30.1806 6.6699
510 1 -43.618 -53.2477 73.3689
4002 1 -46.5496 -26.3757 0
3996 1 -44.7081 -27.6446 6.6699
3990 1 -50.2323 -23.8352 0
3984 1 -44.7081 -27.6446 11.1165
3978 1 -50.2323 -23.8352 4.4466
516 1 -54.6047 -45.6166 55.5825
3972 1 -41.0256 -30.1806 20.0097
3966 1 -46.5496 -26.3757 13.3398
3960 1 -52.0731 -22.5639 6.6699
3954 1 -57.5923 -18.745 0
3948 1 -44.7081 -27.6446 20.0097
522 1 -49.109 -49.432 62.2524
3942 1 -50.2323 -23.8352 13.3398
3936 1 -55.7532 -20.0187 6.6699
3930 1 -41.0256 -30.1806 28.9029
3924 1 -46.5496 -26.3757 22.233
3918 1 -52.0731 -22.5639 15.5631
528 1 -43.618 -53.2477 68.9223
3912 1 -57.5923 -18.745 8.8932
3906 1 -42.8667 -28.9129 31.1262
3900 1 -48.391 -25.1058 24.4563
3894 1 -53.9134 -21.2917 17.7864
3888 1 -58.5364 -16.1867 8.8932
534 1 -54.6047 -45.6166 51.1359
3882 1 -44.7081 -27.6446 33.3495
3876 1 -50.2323 -23.8352 26.6796
3870 1 -55.7532 -20.0187 20.0097
3864 1 -41.0256 -30.1806 42.2427
3858 1 -46.5496 -26.3757 35.5728
540 1 -49.109 -49.432 57.8058
3852 1 -52.0731 -22.5639 28.9029
3846 1 -57.5923 -18.745 22.233
3840 1 -42.8667 -28.9129 44.466
3834 1 -48.391 -25.1058 37.7961
3828 1 -53.9134 -21.2917 31.1262
546 1 -43.618 -53.2477 64.4757
3822 1 -58.5364 -16.1867 22.233
3816 1 -44.7081 -27.6446 46.6893
3810 1 -50.2323 -23.8352 40.0194
3804 1 -55.7532 -20.0187 33.3495
3798 1 -41.0256 -30.1806 55.5825
552 1 -54.6047 -45.6166 46.6893
3792 1 -46.5496 -26.3757 48.9126
3786 1 -52.0731 -22.5639 42.2427
3780 1 -57.5923 -18.745 35.5728
3774 1 -42.8667 -28.9129 57.8058
3768 1 -48.391 -25.1058 51.1359
558 1 -49.109 -49.432 53.3592
3762 1 -53.9134 -21.2917 44.466
3756 1 -58.5364 -16.1867 35.5728
3750 1 -44.7081 -27.6446 60.0291
3744 1 -50.2323 -23.8352 53.3592
3738 1 -55.7532 -20.0187 46.6893
564 1 -43.618 -53.2477 60.0291
3732 1 -41.0256 -30.1806 68.9223
3726 1 -46.5496 -26.3757 62.2524
3720 1 -52.0731 -22.5639 55.5825
3714 1 -57.5923 -18.745 48.9126
3708 1 -42.8667 -28.9129 71.1456
570 1 -54.6047 -45.6166 42.2427
3702 1 -48.391 -25.1058 64.4757
3696 1 -53.9134 -21.2917 57.8058
3690 1 -58.5364 -16.1867 48.9126
3684 1 -44.7081 -27.6446 73.3689
3678 1 -50.2323 -23.8352 66.699
576 1 -49.109 -49.432 48.9126
3672 1 -55.7532 -20.0187 60.0291
3666 1 -41.0256 -30.1806 82.2621
3660 1 -46.5496 -26.3757 75.5922
3654 1 -52.0731 -22.5639 68.9223
3648 1 -57.5923 -18.745 62.2524
582 1 -43.618 -53.2477 55.5825
3642 1 -42.8667 -28.9129 84.4854
3636 1 -48.391 -25.1058 77.8155
3630 1 -53.9134 -21.2917 71.1456
3624 1 -58.5364 -16.1867 62.2524
3618 1 -43.8085 -26.3604 84.4854
588 1 -54.6047 -45.6166 37.7961
3612 1 -49.3352 -22.5515 77.8155
3606 1 -54.8579 -18.735 71.1456
3600 1 -43.8085 -26.3604 88.932
3594 1 -49.3352 -22.5515 82.2621
3588 1 -54.8579 -18.735 75.5922
594 1 -49.109 -49.432 44.466
3582 1 -47.4932 -23.822 88.932
3576 1 -53.0176 -20.008 82.2621
3570 1 -49.3352 -22.5515 91.1553
3564 1 -54.8579 -18.735 84.4854
3558 1 -54.8579 -18.735 88.932
600 1 -43.618 -53.2477 51.1359
3552 1 -39.1528 -35.2866 2.2233
3546 1 -41.9275 -31.4656 0
3540 1 -41.9275 -31.4656 4.4466
3534 1 -39.1528 -35.2866 15.5631
3528 1 -43.7676 -30.1976 6.6699
606 1 -54.6047 -45.6166 33.3495
3522 1 -49.2894 -26.3898 0
3516 1 -41.9275 -31.4656 13.3398
3510 1 -47.4488 -27.6597 6.6699
3504 1 -52.97 -23.8476 0
3498 1 -41.9275 -31.4656 17.7864
612 1 -49.109 -49.432 40.0194
3492 1 -47.4488 -27.6597 11.1165
3486 1 -52.97 -23.8476 4.4466
3480 1 -40.991 -34.0188 26.6796
3474 1 -46.5087 -30.2133 20.0097
3468 1 -52.0282 -26.4029 13.3398
618 1 -43.618 -53.2477 46.6893
3462 1 -57.5456 -22.5861 6.6699
3456 1 -42.8298 -32.7508 28.9029
3450 1 -48.3485 -28.9438 22.233
3444 1 -53.8677 -25.1312 15.5631
3438 1 -58.4878 -20.0287 6.6699
624 1 -54.6047 -45.6166 28.9029
3432 1 -44.6691 -31.4823 31.1262
3426 1 -50.1884 -27.6737 24.4563
3420 1 -55.7068 -23.859 17.7864
3414 1 -40.991 -34.0188 40.0194
3408 1 -46.5087 -30.2133 33.3495
630 1 -49.109 -49.432 35.5728
3402 1 -52.0282 -26.4029 26.6796
3396 1 -57.5456 -22.5861 20.0097
3390 1 -42.8298 -32.7508 42.2427
3384 1 -48.3485 -28.9438 35.5728
3378 1 -53.8677 -25.1312 28.9029
636 1 -43.618 -53.2477 42.2427
3372 1 -58.4878 -20.0287 20.0097
3366 1 -44.6691 -31.4823 44.466
3360 1 -50.1884 -27.6737 37.7961
3354 1 -55.7068 -23.859 31.1262
3348 1 -40.991 -34.0188 53.3592
642 1 -54.6047 -45.6166 24.4563
3342 1 -46.5087 -30.2133 46.6893
3336 1 -52.0282 -26.4029 40.0194
3330 1 -57.5456 -22.5861 33.3495
3324 1 -42.8298 -32.7508 55.5825
3318 1 -48.3485 -28.9438 48.9126
648 1 -49.109 -49.432 31.1262
3312 1 -53.8677 -25.1312 42.2427
3306 1 -58.4878 -20.0287 33.3495
3300 1 -44.6691 -31.4823 57.8058
3294 1 -50.1884 -27.6737 51.1359
3288 1 -55.7068 -23.859 44.466
654 1 -43.618 -53.2477 37.7961
3282 1 -40.991 -34.0188 66.699
3276 1 -46.5087 -30.2133 60.0291
3270 1 -52.0282 -26.4029 53.3592
3264 1 -57.5456 -22.5861 46.6893
3258 1 -42.8298 -32.7508 68.9223
660 1 -54.6047 -45.6166 20.0097
3252 1 -48.3485 -28.9438 62.2524
3246 1 -53.8677 -25.1312 55.5825
3240 1 -58.4878 -20.0287 46.6893
3234 1 -44.6691 -31.4823 71.1456
3228 1 -50.1884 -27.6737 64.4757
666 1 -49.109 -49.432 26.6796
3222 1 -55.7068 -23.859 57.8058
3216 1 -40.991 -34.0188 80.0388
3210 1 -46.5087 -30.2133 73.3689
3204 1 -52.0282 -26.4029 66.699
3198 1 -57.5456 -22.5861 60.0291
672 1 -43.618 -53.2477 33.3495
3192 1 -42.8298 -32.7508 82.2621
3186 1 -48.3485 -28.9438 75.5922
3180 1 -53.8677 -25.1312 68.9223
3174 1 -58.4878 -20.0287 60.0291
3168 1 -44.6691 -31.4823 84.4854
678 1 -54.6047 -45.6166 15.5631
3162 1 -50.1884 -27.6737 77.8155
3156 1 -55.7068 -23.859 71.1456
3150 1 -42.8298 -32.7508 91.1553
3144 1 -48.3485 -28.9438 84.4854
3138 1 -53.8677 -25.1312 77.8155
684 1 -49.109 -49.432 22.233
3132 1 -58.4878 -20.0287 68.9223
3126 1 -50.1884 -27.6737 86.7087
3120 1 -55.7068 -23.859 80.0388
3114 1 -50.1884 -27.6737 91.1553
3108 1 -55.7068 -23.859 84.4854
690 1 -43.618 -53.2477 28.9029
3102 1 -53.8677 -25.1312 91.1553
3096 1 -58.4878 -20.0287 82.2621
3090 1 -39.1257 -39.1272 0
3084 1 -40.9616 -37.8586 6.6699
3078 1 -46.473 -34.0519 0
696 1 -54.6047 -45.6166 11.1165
3072 1 -44.6353 -35.321 6.6699
3066 1 -50.1495 -31.5123 0
3060 1 -44.6353 -35.321 11.1165
3054 1 -50.1495 -31.5123 4.4466
3048 1 -40.9616 -37.8586 20.0097
702 1 -49.109 -49.432 17.7864
3042 1 -46.473 -34.0519 13.3398
3036 1 -51.9879 -30.2417 6.6699
3030 1 -57.5025 -26.4264 0
3024 1 -44.6353 -35.321 20.0097
3018 1 -50.1495 -31.5123 13.3398
708 1 -43.618 -53.2477 24.4563
3012 1 -55.6645 -27.6988 6.6699
3006 1 -40.9616 -37.8586 28.9029
3000 1 -46.473 -34.0519 22.233
2994 1 -51.9879 -30.2417 15.5631
2988 1 -57.5025 -26.4264 8.8932
714 1 -54.6047 -45.6166 6.6699
2982 1 -42.7981 -36.5899 31.1262
2976 1 -48.3111 -32.7824 24.4563
2970 1 -53.8262 -28.9705 17.7864
2964 1 -58.4427 -23.8697 8.8932
2958 1 -44.6353 -35.321 33.3495
720 1 -49.109 -49.432 13.3398
2952 1 -50.1495 -31.5123 26.6796
2946 1 -55.6645 -27.6988 20.0097
2940 1 -40.9616 -37.8586 42.2427
2934 1 -46.473 -34.0519 35.5728
2928 1 -51.9879 -30.2417 28.9029
726 1 -43.618 -53.2477 20.0097
2922 1 -57.5025 -26.4264 22.233
2916 1 -42.7981 -36.5899 44.466
2910 1 -48.3111 -32.7824 37.7961
2904 1 -53.8262 -28.9705 31.1262
2898 1 -58.4427 -23.8697 22.233
732 1 -55.5093 -46.9016 4.4466
2892 1 -44.6353 -35.321 46.6893
2886 1 -50.1495 -31.5123 40.0194
2880 1 -55.6645 -27.6988 33.3495
2874 1 -40.9616 -37.8586 55.5825
2868 1 -46.473 -34.0519 48.9126
738 1 -50.0149 -50.7178 11.1165
2862 1 -51.9879 -30.2417 42.2427
2856 1 -57.5025 -26.4264 35.5728
2850 1 -42.7981 -36.5899 57.8058
2844 1 -48.3111 -32.7824 51.1359
2838 1 -53.8262 -28.9705 44.466
744 1 -44.5251 -54.5345 17.7864
2832 1 -58.4427 -23.8697 35.5728
2826 1 -44.6353 -35.321 60.0291
2820 1 -50.1495 -31.5123 53.3592
2814 1 -55.6645 -27.6988 46.6893
2808 1 -40.9616 -37.8586 68.9223
750 1 -51.8459 -49.4458 4.4466
2802 1 -46.473 -34.0519 62.2524
2796 1 -51.9879 -30.2417 55.5825
2790 1 -57.5025 -26.4264 48.9126
2784 1 -42.7981 -36.5899 71.1456
2778 1 -48.3111 -32.7824 64.4757
756 1 -46.3544 -53.262 11.1165
2772 1 -53.8262 -28.9705 57.8058
2766 1 -58.4427 -23.8697 48.9126
2760 1 -44.6353 -35.321 73.3689
2754 1 -50.1495 -31.5123 66.699
2748 1 -55.6645 -27.6988 60.0291
762 1 -50.0149 -50.7178 2.2233
2742 1 -40.9616 -37.8586 82.2621
2736 1 -46.473 -34.0519 75.5922
2730 1 -51.9879 -30.2417 68.9223
2724 1 -57.5025 -26.4264 62.2524
2718 1 -42.7981 -36.5899 84.4854
768 1 -44.5251 -54.5345 8.8932
2712 1 -48.3111 -32.7824 77.8155
2706 1 -53.8262 -28.9705 71.1456
2700 1 -58.4427 -23.8697 62.2524
2694 1 -44.6353 -35.321 86.7087
2688 1 -50.1495 -31.5123 80.0388
774 1 -44.5251 -54.5345 4.4466
2682 1 -55.6645 -27.6988 73.3689
2676 1 -44.6353 -35.321 91.1553
2670 1 -50.1495 -31.5123 84.4854
2664 1 -55.6645 -27.6988 77.8155
2658 1 -48.3111 -32.7824 91.1553
780 1 -58.2982 -39.2312 84.4854
2652 1 -53.8262 -28.9705 84.4854
2646 1 -58.4427 -23.8697 75.5922
2640 1 -55.6645 -27.6988 86.7087
2634 1 -55.6645 -27.6988 91.1553
2628 1 -58.4427 -23.8697 88.932
786 1 -58.2982 -39.2312 80.0388
2622 1 -42.7711 -40.4305 2.2233
2616 1 -42.7711 -40.4305 6.6699
2610 1 -48.2783 -36.6216 0
2604 1 -44.6063 -39.1611 8.8932
2598 1 -50.1151 -35.3515 2.2233
792 1 -53.7004 -44.3316 88.932
2592 1 -42.7711 -40.4305 15.5631
2586 1 -48.2783 -36.6216 8.8932
2580 1 -53.7891 -32.81 2.2233
2574 1 -42.7711 -40.4305 20.0097
2568 1 -48.2783 -36.6216 13.3398
798 1 -57.3671 -41.7878 80.0388
2562 1 -53.7891 -32.81 6.6699
2556 1 -39.1029 -42.9695 28.9029
2550 1 -43.702 -37.8755 20.0097
2544 1 -49.2129 -34.0669 13.3398
2538 1 -54.7259 -30.2544 6.6699
804 1 -51.8676 -45.6031 86.7087
2532 1 -40.031 -40.4136 28.9029
2526 1 -45.5386 -36.6062 22.233
2520 1 -51.0505 -32.7966 15.5631
2514 1 -56.5637 -28.9826 8.8932
2508 1 -41.8662 -39.1446 31.1262
810 1 -58.2982 -39.2312 71.1456
2502 1 -47.3756 -35.3367 24.4563
2496 1 -52.8882 -31.5257 17.7864
2490 1 -39.1029 -42.9695 42.2427
2484 1 -43.702 -37.8755 33.3495
2478 1 -49.2129 -34.0669 26.6796
816 1 -53.7004 -44.3316 80.0388
2472 1 -54.7259 -30.2544 20.0097
2466 1 -40.031 -40.4136 42.2427
2460 1 -45.5386 -36.6062 35.5728
2454 1 -51.0505 -32.7966 28.9029
2448 1 -56.5637 -28.9826 22.233
822 1 -48.2032 -48.1461 86.7087
2442 1 -41.8662 -39.1446 44.466
2436 1 -47.3756 -35.3367 37.7961
2430 1 -52.8882 -31.5257 31.1262
2424 1 -39.1029 -42.9695 55.5825
2418 1 -44.6063 -39.1611 48.9126
828 1 -58.2982 -39.2312 66.699
2412 1 -50.1151 -35.3515 42.2427
2406 1 -55.6262 -31.5384 35.5728
2400 1 -40.9366 -41.6999 57.8058
2394 1 -46.4421 -37.8915 51.1359
2388 1 -51.952 -34.081 44.466
834 1 -53.7004 -44.3316 75.5922
2382 1 -57.4632 -30.2664 37.7961
2376 1 -42.7711 -40.4305 60.0291
2370 1 -48.2783 -36.6216 53.3592
2364 1 -53.7891 -32.81 46.6893
2358 1 -58.4011 -27.7101 37.7961
840 1 -48.2032 -48.1461 82.2621
2352 1 -44.6063 -39.1611 62.2524
2346 1 -50.1151 -35.3515 55.5825
2340 1 -55.6262 -31.5384 48.9126
2334 1 -38.1967 -41.6827 71.1456
2328 1 -43.702 -37.8755 64.4757
846 1 -42.7111 -51.961 88.932
2322 1 -49.2129 -34.0669 57.8058
2316 1 -54.7259 -30.2544 51.1359
2310 1 -40.031 -40.4136 73.3689
2304 1 -45.5386 -36.6062 66.699
2298 1 -51.0505 -32.7966 60.0291
852 1 -54.6299 -41.775 66.699
2292 1 -56.5637 -28.9826 53.3592
2286 1 -41.8662 -39.1446 75.5922
2280 1 -47.3756 -35.3367 68.9223
2274 1 -52.8882 -31.5257 62.2524
2268 1 -39.1029 -42.9695 86.7087
858 1 -49.13 -45.5891 73.3689
2262 1 -43.702 -37.8755 77.8155
2256 1 -49.2129 -34.0669 71.1456
2250 1 -54.7259 -30.2544 64.4757
2244 1 -40.031 -40.4136 86.7087
2238 1 -45.5386 -36.6062 80.0388
864 1 -43.6346 -49.4027 80.0388
2232 1 -51.0505 -32.7966 73.3689
2226 1 -56.5637 -28.9826 66.699
2220 1 -43.702 -37.8755 86.7087
2214 1 -49.2129 -34.0669 80.0388
2208 1 -54.7259 -30.2544 73.3689
870 1 -39.0531 -54.5056 88.932
2202 1 -45.5386 -36.6062 88.932
2196 1 -51.0505 -32.7966 82.2621
2190 1 -56.5637 -28.9826 75.5922
2184 1 -51.0505 -32.7966 86.7087
2178 1 -56.5637 -28.9826 80.0388
876 1 -52.7962 -43.0466 64.4757
2172 1 -54.7259 -30.2544 86.7087
2166 1 -56.5637 -28.9826 88.932
2160 1 -40.009 -44.2563 0
2154 1 -41.8422 -42.9864 2.2233
2148 1 -40.009 -44.2563 8.8932
882 1 -47.2976 -46.8602 71.1456
2142 1 -45.5107 -40.4467 2.2233
2136 1 -40.009 -44.2563 13.3398
2130 1 -45.5107 -40.4467 6.6699
2124 1 -51.0175 -36.6361 0
2118 1 -41.8422 -42.9864 15.5631
888 1 -41.8041 -50.6742 77.8155
2112 1 -47.3458 -39.1767 8.8932
2106 1 -52.8537 -35.3653 2.2233
2100 1 -40.009 -44.2563 22.233
2094 1 -45.5107 -40.4467 15.5631
2088 1 -51.0175 -36.6361 8.8932
894 1 -56.464 -40.5033 55.5825
2082 1 -56.5268 -32.8225 2.2233
2076 1 -41.8422 -42.9864 24.4563
2070 1 -47.3458 -39.1767 17.7864
2064 1 -52.8537 -35.3653 11.1165
2058 1 -39.0835 -46.8134 35.5728
900 1 -50.9628 -44.3179 62.2524
2052 1 -43.676 -41.7165 26.6796
2046 1 -49.1815 -37.9066 20.0097
2040 1 -54.6902 -34.0941 13.3398
2034 1 -40.009 -44.2563 35.5728
2028 1 -45.5107 -40.4467 28.9029
906 1 -45.4658 -48.1314 68.9223
2022 1 -51.0175 -36.6361 22.233
2016 1 -56.5268 -32.8225 15.5631
2010 1 -41.8422 -42.9864 37.7961
2004 1 -47.3458 -39.1767 31.1262
1998 1 -52.8537 -35.3653 24.4563
912 1 -39.9744 -51.946 75.5922
1992 1 -39.0835 -46.8134 48.9126
1986 1 -43.676 -41.7165 40.0194
1980 1 -49.1815 -37.9066 33.3495
1974 1 -54.6902 -34.0941 26.6796
1968 1 -40.009 -44.2563 48.9126
918 1 -54.6299 -41.775 53.3592
1962 1 -45.5107 -40.4467 42.2427
1956 1 -51.0175 -36.6361 35.5728
1950 1 -56.5268 -32.8225 28.9029
1944 1 -41.8422 -42.9864 51.1359