ITEM: TIMESTEP
150
ITEM: NUMBER OF ATOMS
75580
ITEM: BOX BOUNDS pp pp pp
-1.1164198570561297e+02 1.1164198570561297e+02
-1.0525707354342740e+02 1.0525707354342740e+02
-0.0000000000000000e+00 9.3378599607264192e+01
ITEM: ATOMS id type x y z
17220 1 -38.3652 -22.5124 42.2427
17364 1 -37.4234 -25.0647 33.3495
17412 1 -38.3651 -22.5124 24.4563
6546 1 -39.4573 -0.783479 7.28408e-06
7110 1 -42.1715 -0.796265 48.9126
6 1 -58.2041 -54.6004 66.699
6246 1 -44.8816 -0.808035 71.1456
6348 1 -44.8816 -0.808036 31.1262
6360 1 -44.8816 -0.808036 26.6796
6828 1 -44.8816 -0.808036 35.5728
20526 1 -38.4896 -11.018 88.932
12 1 -58.2041 -54.6004 40.0194
5958 1 -38.4896 -11.018 75.5922
23574 1 -38.5422 -3.34618 62.2524
23664 1 -38.5422 -3.34618 48.9126
6954 1 -39.4573 -0.783478 88.932
7128 1 -39.4572 -0.783508 44.466
18 1 -58.2041 -54.6004 13.3398
7146 1 -39.4572 -0.783508 40.0194
13572 1 -38.1847 -45.5458 11.1165
13530 1 -38.1847 -45.5458 24.4563
13488 1 -38.1847 -45.5458 37.7961
13446 1 -38.1847 -45.5458 51.1359
24 1 -56.3931 -52.0297 88.932
13404 1 -38.1847 -45.5458 64.4757
13356 1 -38.1847 -45.5458 82.2621
6540 1 -39.4477 -4.6312 15.5631
7230 1 -42.1715 -0.796261 17.7864
6534 1 -41.2708 -3.35885 17.7864
30 1 -54.5627 -53.3024 86.7087
6528 1 -40.3614 -2.07231 20.0097
6522 1 -43.0835 -2.08532 24.4563
6516 1 -39.4477 -4.63121 37.7961
6510 1 -39.4477 -4.63121 42.2427
19224 1 -38.4502 -14.8485 91.1553
36 1 -54.5627 -53.3024 82.2621
6504 1 -41.2708 -3.35886 44.466
6498 1 -43.0835 -2.08532 46.6893
6492 1 -39.4477 -4.6312 60.0291
6486 1 -41.2708 -3.35885 62.2524
6480 1 -40.3614 -2.07231 64.4757
42 1 -54.5627 -53.3024 77.8155
6474 1 -43.0835 -2.08532 68.9223
6468 1 -39.4477 -4.63119 82.2621
6462 1 -41.2708 -3.35884 84.4854
6456 1 -40.3614 -2.0723 86.7087
6450 1 -39.426 -8.46648 4.44662
48 1 -54.5627 -53.3024 73.3689
6444 1 -40.3548 -5.91405 4.44662
6438 1 -39.426 -8.46649 13.3398
6432 1 -44.004 -3.37093 4.44661
6426 1 -41.2626 -7.19484 15.5631
6420 1 -46.7487 -3.38075 8.89321
54 1 -54.5627 -53.3024 68.9223
6414 1 -41.2626 -7.19484 20.0097
6408 1 -46.7487 -3.38075 13.3398
23952 1 -38.5422 -3.34617 22.233
6402 1 -41.2626 -7.19485 24.4563
6396 1 -46.7487 -3.38074 17.7864
60 1 -54.5627 -53.3024 64.4757
6390 1 -40.3547 -5.91406 26.6796
6384 1 -45.8076 -2.09753 20.0097
6378 1 -43.0963 -5.92317 31.1262
6372 1 -48.5391 -2.1065 24.4563
6366 1 -42.1833 -4.64253 33.3495
66 1 -54.5627 -53.3024 60.0291
6354 1 -42.1833 -4.64253 37.7961
6342 1 -44.9265 -4.65176 42.2427
6336 1 -39.426 -8.4665 53.3592
6330 1 -44.9265 -4.65176 46.6893
6324 1 -39.426 -8.4665 57.8058
72 1 -54.5627 -53.3024 55.5825
6318 1 -44.004 -3.37093 48.9126
6312 1 -41.2626 -7.19485 60.0291
6306 1 -46.7487 -3.38074 53.3592
6300 1 -41.2626 -7.19484 64.4757
6294 1 -46.7487 -3.38074 57.8058
78 1 -54.5627 -53.3024 51.1359
6288 1 -41.2626 -7.19484 68.9223
6282 1 -46.7487 -3.38074 62.2524
6276 1 -40.3547 -5.91405 71.1456
6270 1 -45.8076 -2.09753 64.4757
6264 1 -40.3547 -5.91405 75.5922
84 1 -54.5627 -53.3024 46.6893
6258 1 -45.8076 -2.09753 68.9223
6252 1 -42.1833 -4.64252 77.8155
17514 1 -37.4234 -25.0646 20.0097
6240 1 -44.9265 -4.65176 82.2621
6234 1 -41.2626 -7.19484 91.1553
90 1 -54.5627 -53.3024 42.2427
6228 1 -46.7487 -3.38075 84.4854
6222 1 -44.004 -3.37093 88.932
6216 1 -48.5391 -2.1065 91.1553
23790 1 -38.5422 -3.34618 35.5728
6210 1 -41.2351 -11.0248 4.44661
96 1 -54.5627 -53.3024 37.7961
6204 1 -41.2351 -11.0248 8.89321
6198 1 -46.7632 -7.20206 2.2233
6192 1 -43.0774 -9.75156 11.1165
6186 1 -48.6069 -5.92425 4.4466
6180 1 -41.2351 -11.0248 17.7864
102 1 -54.5627 -53.3024 33.3495
6174 1 -46.7632 -7.20206 11.1165
6168 1 -52.3585 -3.34941 4.4466
6162 1 -40.3307 -9.74614 20.0097
6156 1 -45.8458 -5.92838 13.3398
6150 1 -51.3018 -2.08519 6.6699
108 1 -54.5627 -53.3024 28.9029
6144 1 -43.0774 -9.75156 24.4563
6138 1 -48.6069 -5.92425 17.7864
6132 1 -54.1959 -2.07175 11.1165
6126 1 -42.1705 -8.47384 26.6796
6120 1 -47.6834 -4.65524 20.0097
114 1 -54.5627 -53.3024 24.4563
6114 1 -52.8875 -0.79356 13.3398
6108 1 -44.9199 -8.47742 31.1262
6102 1 -50.4589 -4.63976 24.4563
6096 1 -39.3923 -12.2973 42.2427
6090 1 -44.0089 -7.20121 33.3495
120 1 -54.5627 -53.3024 20.0097
6084 1 -49.5229 -3.38062 26.6796
6078 1 -39.3923 -12.2973 46.6893
6072 1 -44.0089 -7.20121 37.7961
6066 1 -49.5229 -3.38062 31.1262
6060 1 -41.2351 -11.0248 48.9126
126 1 -54.5627 -53.3024 15.5631
6054 1 -46.7632 -7.20205 42.2427
6048 1 -52.3585 -3.34941 35.5728
6042 1 -40.3307 -9.74615 51.1359
6036 1 -45.8458 -5.92837 44.466
6030 1 -51.3018 -2.08519 37.7961
132 1 -54.5627 -53.3024 11.1165
6024 1 -42.1705 -8.47384 53.3592
6018 1 -47.6834 -4.65524 46.6893
6012 1 -52.8875 -0.79356 40.0194
6006 1 -44.9199 -8.47742 57.8058
6000 1 -50.4589 -4.63976 51.1359
138 1 -54.5627 -53.3024 6.6699
5994 1 -52.8875 -0.79356 44.466
5988 1 -44.9199 -8.47742 62.2524
5982 1 -50.4589 -4.63976 55.5825
5976 1 -39.3922 -12.2973 73.3689
5970 1 -44.0089 -7.20121 64.4757
144 1 -55.4686 -54.588 4.4466
5964 1 -49.5229 -3.38062 57.8058
24150 1 -38.5423 -3.34616 8.89324
5952 1 -44.0089 -7.20121 68.9223
5946 1 -49.5229 -3.38062 62.2524
5940 1 -41.2351 -11.0248 80.0388
150 1 -58.2458 -46.9143 84.4854
5934 1 -46.7632 -7.20205 73.3689
5928 1 -52.3585 -3.34941 66.699
5922 1 -43.0774 -9.75155 82.2621
5916 1 -48.6069 -5.92425 75.5922
5910 1 -54.1959 -2.07175 68.9223
156 1 -58.2458 -46.9143 80.0388
5904 1 -42.1705 -8.47383 84.4854
5898 1 -47.6834 -4.65525 77.8155
5892 1 -50.2595 -0.810467 71.1456
5886 1 -46.7632 -7.20206 86.7087
5880 1 -52.3585 -3.34941 80.0388
162 1 -53.6571 -52.0169 88.932
5874 1 -48.6069 -5.92425 88.932
5868 1 -54.1959 -2.07175 82.2621
5862 1 -51.3018 -2.08519 86.7087
5856 1 -52.8875 -0.79356 88.932
5850 1 -39.3515 -16.128 8.8932
168 1 -57.3188 -49.4719 80.0388
5844 1 -43.9831 -11.0287 7.67904e-06
5838 1 -42.1387 -12.303 6.66991
5832 1 -47.6752 -8.47513 3.08921e-06
5826 1 -42.1387 -12.303 11.1165
5820 1 -47.6752 -8.47513 4.4466
174 1 -51.8269 -53.2894 86.7087
5814 1 -39.3515 -16.128 22.233
5808 1 -43.9831 -11.0287 13.3398
5802 1 -49.5271 -7.19368 6.6699
5796 1 -55.0836 -3.35759 0
5790 1 -42.1387 -12.303 20.0097
180 1 -57.3188 -49.4719 75.5922
5784 1 -47.6753 -8.47512 13.3398
5778 1 -53.246 -4.63499 6.6699
5772 1 -39.3515 -16.128 31.1262
5766 1 -43.9831 -11.0287 22.233
5760 1 -49.5271 -7.19368 15.5631
186 1 -51.8269 -53.2894 82.2621
5754 1 -55.0836 -3.35759 8.8932
5748 1 -40.2946 -13.5763 31.1262
5742 1 -45.828 -9.75293 24.4563
5736 1 -51.3775 -5.90714 17.7864
5730 1 -56.9199 -2.07961 11.1165
192 1 -57.3188 -49.4719 71.1456
5724 1 -44.8869 -12.306 33.3495
5718 1 -50.4326 -8.46936 26.6796
5712 1 -55.9721 -4.64311 20.0097
5706 1 -40.2946 -13.5763 40.0194
5700 1 -45.828 -9.75293 33.3495
198 1 -51.8269 -53.2894 77.8155
5694 1 -51.3775 -5.90714 26.6796
5688 1 -56.9199 -2.07961 20.0097
5682 1 -42.1388 -12.303 42.2427
5676 1 -47.6753 -8.47512 35.5728
5670 1 -53.246 -4.63499 28.9029
204 1 -57.3188 -49.4719 66.699
5664 1 -39.3516 -16.128 53.3593
5658 1 -43.9831 -11.0287 44.466
5652 1 -49.5271 -7.19368 37.7961
5646 1 -55.0836 -3.35759 31.1262
5640 1 -43.0413 -13.5812 53.3592
210 1 -51.8269 -53.2894 73.3689
5634 1 -48.5811 -9.75025 46.6893
5628 1 -54.1345 -5.92027 40.0194
5622 1 -39.3515 -16.128 62.2525
5616 1 -43.9831 -11.0287 53.3592
5610 1 -49.5271 -7.19368 46.6893
216 1 -57.3188 -49.4719 62.2524
5604 1 -55.0836 -3.35759 40.0194
5598 1 -40.2946 -13.5763 62.2525
5592 1 -45.828 -9.75292 55.5825
5586 1 -51.3775 -5.90714 48.9126
5580 1 -56.9199 -2.07961 42.2427
222 1 -51.8269 -53.2894 68.9223
5574 1 -42.1387 -12.303 64.4757
5568 1 -47.6753 -8.47512 57.8058
5562 1 -53.246 -4.63499 51.1359
5556 1 -41.1963 -14.8552 73.3689
5550 1 -46.7334 -11.0292 66.699
228 1 -57.3188 -49.4719 57.8058
5544 1 -52.2954 -7.19677 60.0291
5538 1 -57.8085 -3.36535 53.3592
5532 1 -42.1387 -12.303 73.3689
5526 1 -47.6753 -8.47512 66.699
5520 1 -53.246 -4.63499 60.0291
234 1 -51.8269 -53.2894 64.4757
5514 1 -41.1963 -14.8552 82.2621
5508 1 -46.7334 -11.0292 75.5922
5502 1 -52.2954 -7.19677 68.9223
5496 1 -57.8085 -3.36535 62.2524
5490 1 -42.1387 -12.303 82.2621
240 1 -57.3188 -49.4719 53.3592
5484 1 -47.6752 -8.47512 75.5922
5478 1 -53.246 -4.63499 68.9223
5472 1 -41.1963 -14.8552 91.1553
5466 1 -46.7334 -11.0292 84.4854
5460 1 -52.2954 -7.19677 77.8155
246 1 -51.8269 -53.2894 60.0291
5454 1 -57.8085 -3.36535 71.1456
5448 1 -46.7334 -11.0292 88.932
5442 1 -52.2954 -7.19677 82.2621
5436 1 -57.8085 -3.36535 75.5922
5430 1 -49.5271 -7.19368 86.7087
252 1 -57.3188 -49.4719 48.9126
5424 1 -55.0836 -3.35759 80.0388
5418 1 -54.1345 -5.92027 88.932
5412 1 -55.6105 -0.80114 80.0388
5406 1 -55.6105 -0.80114 84.4854
5400 1 -40.2524 -17.4076 2.22331
258 1 -51.8269 -53.2894 55.5825
5394 1 -40.2524 -17.4076 6.6699
5388 1 -45.7884 -13.5843 6.0149e-06
5382 1 -42.0973 -16.1344 8.8932
5376 1 -47.6353 -12.3073 2.2233
5370 1 -40.2524 -17.4076 15.5631
264 1 -57.3188 -49.4719 44.466
5364 1 -45.7884 -13.5843 8.8932
5358 1 -51.3307 -9.75382 2.2233
5352 1 -40.2524 -17.4076 20.0097
5346 1 -45.7884 -13.5843 13.3398
5340 1 -51.3307 -9.75382 6.6699
270 1 -51.8269 -53.2894 51.1359
5334 1 -56.8614 -5.92835 0
5328 1 -44.8427 -16.1395 22.233
5322 1 -50.3815 -12.3125 15.5631
5316 1 -55.9136 -8.49008 8.8932
5310 1 -41.1529 -18.6877 31.1262
276 1 -57.3188 -49.4719 40.0194
5304 1 -46.6883 -14.864 24.4563
5298 1 -52.2344 -11.0414 17.7864
5292 1 -57.7514 -7.21335 11.1165
5286 1 -42.9977 -17.4141 33.3495
5280 1 -48.5341 -13.5879 26.6796
282 1 -51.8269 -53.2894 46.6893
5274 1 -54.0746 -9.76613 20.0097
5268 1 -58.698 -4.65081 11.1165
5262 1 -44.8428 -16.1396 35.5728
5256 1 -50.3815 -12.3125 28.9029
5250 1 -55.9136 -8.49008 22.233
288 1 -57.3188 -49.4719 35.5728
5244 1 -41.1529 -18.6877 44.466
5238 1 -46.6883 -14.864 37.7961
5232 1 -52.2344 -11.0414 31.1262
5226 1 -57.7514 -7.21335 24.4563
5220 1 -42.9977 -17.4141 46.6893
294 1 -51.8269 -53.2894 42.2427
5214 1 -48.5342 -13.5879 40.0194
5208 1 -54.0746 -9.76613 33.3495
5202 1 -58.698 -4.65081 24.4563
5196 1 -44.8428 -16.1396 48.9126
5190 1 -50.3815 -12.3125 42.2427
300 1 -57.3188 -49.4719 31.1262
5184 1 -55.9136 -8.49008 35.5728
5178 1 -41.1529 -18.6877 57.8059
5172 1 -46.6883 -14.864 51.1359
5166 1 -52.2344 -11.0414 44.466
5160 1 -57.7514 -7.21335 37.7961
306 1 -51.8269 -53.2894 37.7961
5154 1 -42.9976 -17.4141 60.0292
5148 1 -48.5341 -13.5879 53.3592
5142 1 -54.0746 -9.76613 46.6893
5136 1 -58.698 -4.65081 37.7961
5130 1 -44.8427 -16.1395 62.2524
312 1 -57.3188 -49.4719 26.6796
5124 1 -50.3815 -12.3125 55.5825
5118 1 -55.9136 -8.49008 48.9126
5112 1 -41.1529 -18.6876 71.1457
5106 1 -46.6883 -14.864 64.4757
5100 1 -52.2344 -11.0414 57.8058
318 1 -51.8269 -53.2894 33.3495
5094 1 -57.7514 -7.21335 51.1359
5088 1 -42.9976 -17.4141 73.3689
5082 1 -48.5341 -13.5879 66.699
5076 1 -54.0746 -9.76613 60.0291
5070 1 -58.698 -4.65081 51.1359
324 1 -57.3188 -49.4719 22.233
5064 1 -44.8427 -16.1395 75.5922
5058 1 -50.3815 -12.3125 68.9223
5052 1 -55.9136 -8.49008 62.2524
5040 1 -43.9426 -14.86 77.8155
5034 1 -49.4841 -11.0296 71.1456
330 1 -51.8269 -53.2894 28.9029
5028 1 -55.0236 -7.20529 64.4757
5022 1 -40.2524 -17.4076 86.7087
5016 1 -45.7884 -13.5843 80.0388
5010 1 -51.3307 -9.75382 73.3689
5004 1 -56.8614 -5.92835 66.699
336 1 -57.3188 -49.4719 17.7864
4998 1 -43.9426 -14.86 86.7087
4992 1 -49.4841 -11.0296 80.0388
4986 1 -55.0236 -7.20529 73.3689
4980 1 -45.7884 -13.5843 88.932
4974 1 -51.3307 -9.75382 82.2621
342 1 -51.8269 -53.2894 24.4563
4968 1 -56.8614 -5.92835 75.5922
4962 1 -51.3307 -9.75382 86.7087
4956 1 -56.8614 -5.92835 80.0388
4950 1 -55.0236 -7.20529 86.7087
4944 1 -56.8614 -5.92835 88.932
348 1 -57.3188 -49.4719 13.3398
4938 1 -40.2089 -21.2408 1.54508e-05
4932 1 -42.0529 -19.9681 2.22331
4926 1 -40.2089 -21.2408 8.89319
4920 1 -45.7417 -17.4202 2.2233
4914 1 -40.2089 -21.2408 13.3398
354 1 -51.8269 -53.2894 20.0097
4908 1 -45.7417 -17.4202 6.6699
4902 1 -51.2771 -13.5973 6.86771e-07
4896 1 -42.053 -19.9681 15.5631
4890 1 -47.5867 -16.1453 8.8932
4884 1 -53.1254 -12.3256 2.2233
360 1 -57.3188 -49.4719 8.8932
4878 1 -40.209 -21.2408 22.233
4872 1 -45.7417 -17.4202 15.5631
4866 1 -51.2771 -13.5973 8.8932
4860 1 -56.8044 -9.77466 2.2233
4854 1 -42.053 -19.9681 24.4563
366 1 -51.8269 -53.2894 15.5631
4848 1 -47.5867 -16.1453 17.7864
4842 1 -53.1254 -12.3256 11.1165
4836 1 -39.2663 -23.7938 35.5728
4830 1 -43.8972 -18.6946 26.6796
4824 1 -49.4325 -14.8706 20.0097
372 1 -57.3188 -49.4719 4.4466
4818 1 -54.9654 -11.0505 13.3398
4812 1 -40.209 -21.2408 35.5728
4806 1 -45.7417 -17.4202 28.9029
4800 1 -51.2771 -13.5973 22.233
4794 1 -56.8044 -9.77466 15.5631
378 1 -51.8269 -53.2894 11.1165
4788 1 -42.053 -19.9681 37.7961
4782 1 -47.5867 -16.1453 31.1262
4776 1 -53.1254 -12.3256 24.4563
4770 1 -39.2663 -23.7938 48.9127
4764 1 -43.8972 -18.6946 40.0194
384 1 -55.4877 -50.7444 2.2233
4758 1 -49.4325 -14.8706 33.3495
4752 1 -54.9654 -11.0505 26.6796
4746 1 -40.209 -21.2408 48.9126
4740 1 -45.7417 -17.4202 42.2427
4734 1 -51.2771 -13.5973 35.5728
390 1 -49.9971 -54.5621 8.8932
4728 1 -56.8044 -9.77466 28.9029
4722 1 -42.053 -19.9681 51.1359
4716 1 -47.5868 -16.1453 44.466
4710 1 -53.1254 -12.3256 37.7961
4704 1 -39.2663 -23.7938 62.2525
396 1 -49.9971 -54.5621 4.4466
4698 1 -43.8972 -18.6946 53.3592
4692 1 -49.4325 -14.8706 46.6893
4686 1 -54.9654 -11.0505 40.0194
4680 1 -40.209 -21.2408 62.2525
4674 1 -45.7417 -17.4202 55.5825
402 1 -56.4375 -44.3446 88.932
4668 1 -51.2771 -13.5973 48.9126
4662 1 -56.8044 -9.77466 42.2427
4656 1 -42.053 -19.9681 64.4758
4650 1 -47.5867 -16.1453 57.8058
4644 1 -53.1254 -12.3256 51.1359
408 1 -54.6047 -45.6166 86.7087
4638 1 -39.2662 -23.7937 75.5923
4632 1 -43.8972 -18.6946 66.6991
4626 1 -49.4325 -14.8706 60.0291
4620 1 -54.9654 -11.0505 53.3592
4614 1 -40.2089 -21.2408 75.5923
414 1 -56.4375 -44.3446 80.0388
4608 1 -45.7417 -17.4202 68.9223
4602 1 -51.2771 -13.5973 62.2524
4596 1 -56.8044 -9.77466 55.5825
4590 1 -42.9527 -21.2492 80.0388
4584 1 -48.484 -17.4278 73.3689
420 1 -50.9404 -48.1602 86.7087
4578 1 -54.0173 -13.6096 66.699
4572 1 -58.6421 -8.49814 57.8058
4566 1 -44.7963 -19.9758 82.2621
4560 1 -50.3287 -16.1543 75.5922
4554 1 -55.8571 -12.3347 68.9223
426 1 -56.4375 -44.3446 75.5922
4548 1 -40.2089 -21.2408 88.932
4542 1 -45.7417 -17.4202 82.2621
4536 1 -51.2771 -13.5973 75.5922
4530 1 -56.8044 -9.77466 68.9223
4524 1 -45.7417 -17.4202 86.7087
432 1 -50.9404 -48.1602 82.2621
4518 1 -51.2771 -13.5973 80.0388
4512 1 -56.8044 -9.77466 73.3689
4506 1 -49.4325 -14.8706 86.7087
4500 1 -54.9654 -11.0505 80.0388
4494 1 -51.2771 -13.5973 88.932
438 1 -45.4478 -51.9757 88.932
4488 1 -56.8044 -9.77466 82.2621
4482 1 -56.8044 -9.77466 86.7087
4476 1 -39.2271 -27.6291 6.66989
4470 1 -39.2271 -27.6291 11.1165
4464 1 -43.8521 -22.531 2.2233
444 1 -54.6047 -45.6166 73.3689
4458 1 -40.1673 -25.0755 11.1165
4452 1 -45.6949 -21.2578 4.4466
4446 1 -39.2272 -27.6291 20.0097
4440 1 -43.8521 -22.531 11.1165
4434 1 -49.3816 -18.7112 4.4466
450 1 -49.1102 -49.4342 80.0388
4428 1 -39.2272 -27.6291 24.4563
4422 1 -43.8521 -22.531 15.5631
4416 1 -49.3816 -18.7112 8.8932
4410 1 -54.9099 -14.8937 2.2233
4404 1 -42.9098 -25.0858 24.4563
456 1 -43.618 -53.2477 86.7087
4398 1 -48.4356 -21.2675 17.7864
4392 1 -53.9634 -17.4513 11.1165
4386 1 -58.588 -12.3433 2.2233
4380 1 -44.7516 -23.8133 26.6796
4374 1 -50.2784 -19.9952 20.0097
462 1 -54.6047 -45.6166 68.9223
4368 1 -55.8034 -16.1775 13.3398
4362 1 -41.0684 -26.3578 35.5728
4356 1 -46.5935 -22.5404 28.9029
4350 1 -52.1226 -18.7244 22.233
4344 1 -57.6425 -14.9029 15.5631
468 1 -49.1102 -49.4342 75.5922
4338 1 -42.9098 -25.0858 37.7961
4332 1 -48.4357 -21.2675 31.1262
4326 1 -53.9634 -17.4513 24.4563
4320 1 -58.588 -12.3433 15.5631
4314 1 -44.7516 -23.8133 40.0194
474 1 -43.618 -53.2477 82.2621
4308 1 -50.2784 -19.9952 33.3495
4302 1 -55.8034 -16.1775 26.6796
4296 1 -41.0684 -26.3578 48.9126
4290 1 -46.5935 -22.5404 42.2427
4284 1 -52.1226 -18.7244 35.5728
480 1 -54.6047 -45.6166 64.4757
4278 1 -57.6425 -14.9029 28.9029
4272 1 -42.9098 -25.0858 51.1359
4266 1 -48.4357 -21.2675 44.466
4260 1 -53.9634 -17.4513 37.7961
4254 1 -58.588 -12.3433 28.9029
486 1 -49.1102 -49.4342 71.1456
4248 1 -44.7516 -23.8133 53.3592
4242 1 -50.2784 -19.9952 46.6893
4236 1 -55.8034 -16.1775 40.0194
4224 1 -43.8522 -22.531 55.5825
4218 1 -49.3816 -18.7112 48.9126
492 1 -43.618 -53.2477 77.8155
4212 1 -54.9099 -14.8937 42.2427
4206 1 -40.1673 -25.0755 64.4758
4200 1 -45.695 -21.2578 57.8058
4194 1 -51.2245 -17.439 51.1359
4188 1 -56.7495 -13.6188 44.466
498 1 -54.6047 -45.6166 60.0291
4182 1 -42.0096 -23.8036 66.6991
4176 1 -47.5381 -19.9844 60.0291
4170 1 -53.0695 -16.1676 53.3592
4164 1 -39.2271 -27.6291 77.8156
4158 1 -43.8522 -22.531 68.9224
504 1 -49.1102 -49.4342 66.699
4152 1 -49.3816 -18.7112 62.2524
4146 1 -54.9099 -14.8937 55.5825
4140 1 -40.1673 -25.0755 77.8156
4134 1 -45.6949 -21.2578 71.1456
4128 1 -51.2245 -17.439 64.4757
510 1 -43.618 -53.2477 73.3689
4122 1 -56.7495 -13.6188 57.8058
17664 1 -37.4233 -25.0646 6.66989
4116 1 -42.9098 -25.0858 82.2621
4110 1 -48.4356 -21.2675 75.5922
4104 1 -53.9634 -17.4513 68.9223
516 1 -54.6047 -45.6166 55.5825
4098 1 -58.588 -12.3433 60.0291
4092 1 -44.7515 -23.8132 84.4854
4086 1 -50.2784 -19.9952 77.8155
4080 1 -55.8034 -16.1775 71.1456
4074 1 -42.9098 -25.0858 91.1553
522 1 -49.1102 -49.4342 62.2524
4068 1 -48.4356 -21.2675 84.4854
4062 1 -53.9634 -17.4513 77.8155
4056 1 -58.588 -12.3433 68.9223
4050 1 -50.2784 -19.9952 86.7087
4044 1 -55.8034 -16.1775 80.0388
528 1 -43.618 -53.2477 68.9223
4038 1 -50.2784 -19.9952 91.1553
4032 1 -55.8034 -16.1775 84.4854
4026 1 -53.9634 -17.4513 91.1553
4020 1 -58.588 -12.3433 82.2621
4014 1 -39.192 -31.466 1.32943e-05
534 1 -54.6047 -45.6166 51.1359
4008 1 -41.0311 -30.195 6.66989
4002 1 -46.5503 -26.3791 5.10097e-06
3996 1 -44.7103 -27.6514 6.66989
3990 1 -50.2314 -23.8349 1.61037e-06
3984 1 -44.7103 -27.6514 11.1165
540 1 -49.1102 -49.4342 57.8058
3978 1 -50.2314 -23.8349 4.4466
3972 1 -41.0311 -30.195 20.0097
3966 1 -46.5503 -26.3791 13.3398
3960 1 -52.0731 -22.5639 6.6699
3954 1 -57.5923 -18.745 0
546 1 -43.618 -53.2477 64.4757
3948 1 -44.7103 -27.6514 20.0097
3942 1 -50.2315 -23.8349 13.3398
3936 1 -55.7532 -20.0187 6.6699
3930 1 -41.0311 -30.195 28.9029
3924 1 -46.5504 -26.3792 22.233
552 1 -54.6047 -45.6166 46.6893
3918 1 -52.0731 -22.5639 15.5631
3912 1 -57.5923 -18.745 8.8932
3906 1 -42.8706 -28.9234 31.1262
3900 1 -48.3907 -25.1069 24.4563
3894 1 -53.9134 -21.2917 17.7864
558 1 -49.1102 -49.4342 53.3592
3888 1 -58.5364 -16.1867 8.8932
3882 1 -44.7103 -27.6514 33.3495
3876 1 -50.2315 -23.8349 26.6796
3870 1 -55.7532 -20.0187 20.0097
3864 1 -41.0312 -30.195 42.2427
564 1 -43.618 -53.2477 60.0291
3858 1 -46.5504 -26.3792 35.5728
3852 1 -52.0731 -22.5639 28.9029
3846 1 -57.5923 -18.745 22.233
3840 1 -42.8706 -28.9234 44.466
3834 1 -48.3907 -25.1069 37.7961
570 1 -54.6047 -45.6166 42.2427
3828 1 -53.9134 -21.2917 31.1262
3822 1 -58.5364 -16.1867 22.233
3816 1 -44.7103 -27.6514 46.6893
3810 1 -50.2315 -23.8349 40.0194
3804 1 -55.7532 -20.0187 33.3495
576 1 -49.1102 -49.4342 48.9126
3798 1 -41.0312 -30.195 55.5826
3792 1 -46.5504 -26.3792 48.9126
3786 1 -52.0731 -22.5639 42.2427
3780 1 -57.5923 -18.745 35.5728
3774 1 -42.8706 -28.9234 57.8059
582 1 -43.618 -53.2477 55.5825
3768 1 -48.3907 -25.1069 51.1359
3762 1 -53.9134 -21.2917 44.466
3756 1 -58.5364 -16.1867 35.5728
3750 1 -44.7103 -27.6514 60.0292
3744 1 -50.2315 -23.8349 53.3592
588 1 -54.6047 -45.6166 37.7961
3738 1 -55.7532 -20.0187 46.6893
3732 1 -41.0311 -30.195 68.9224
3726 1 -46.5504 -26.3792 62.2524
3720 1 -52.0731 -22.5639 55.5825
3714 1 -57.5923 -18.745 48.9126
594 1 -49.1102 -49.4342 44.466
3708 1 -42.8705 -28.9234 71.1457
3702 1 -48.3907 -25.1069 64.4757
3696 1 -53.9134 -21.2917 57.8058
3690 1 -58.5364 -16.1867 48.9126
3684 1 -44.7103 -27.6514 73.369
600 1 -43.618 -53.2477 51.1359
3678 1 -50.2315 -23.8349 66.699
3672 1 -55.7532 -20.0187 60.0291
3666 1 -41.0311 -30.1949 82.2622
3660 1 -46.5503 -26.3791 75.5922
3654 1 -52.0731 -22.5639 68.9223
606 1 -54.6047 -45.6166 33.3495
3648 1 -57.5923 -18.745 62.2524
3642 1 -42.8705 -28.9234 84.4854
3636 1 -48.3907 -25.1069 77.8155
3630 1 -53.9134 -21.2917 71.1456
3624 1 -58.5364 -16.1867 62.2524
612 1 -49.1102 -49.4342 40.0194
3618 1 -43.81 -26.3684 84.4854
3612 1 -49.3336 -22.5511 77.8155
3606 1 -54.8579 -18.735 71.1456
3600 1 -43.81 -26.3684 88.932
3594 1 -49.3336 -22.5511 82.2621
618 1 -43.618 -53.2477 46.6893
3588 1 -54.8579 -18.735 75.5922
3582 1 -47.4921 -23.8235 88.932
3576 1 -53.0176 -20.008 82.2621
3570 1 -49.3336 -22.5511 91.1553
3564 1 -54.8579 -18.735 84.4854
624 1 -54.6047 -45.6166 28.9029
3558 1 -54.8579 -18.735 88.932
3552 1 -39.1611 -35.3047 2.2233
3546 1 -41.9332 -31.4784 9.47813e-06
3540 1 -41.9332 -31.4784 4.44659
3534 1 -39.1612 -35.3047 15.5631
630 1 -49.1102 -49.4342 35.5728
3528 1 -43.7718 -30.2067 6.66989
3522 1 -49.2896 -26.3905 2.32114e-06
3516 1 -41.9332 -31.4784 13.3398
3510 1 -47.45 -27.6626 6.66989
3504 1 -52.97 -23.8476 0
636 1 -43.618 -53.2477 42.2427
3498 1 -41.9332 -31.4784 17.7864
3492 1 -47.45 -27.6626 11.1165
3486 1 -52.97 -23.8476 4.4466
3480 1 -40.998 -34.0336 26.6796
3474 1 -46.5113 -30.2183 20.0097
642 1 -54.6047 -45.6166 24.4563
3468 1 -52.0282 -26.4029 13.3398
3462 1 -57.5456 -22.5861 6.6699
3456 1 -42.8354 -32.7621 28.9029
3450 1 -48.3499 -28.9462 22.233
3444 1 -53.8677 -25.1312 15.5631
648 1 -49.1102 -49.4342 31.1262
3438 1 -58.4878 -20.0287 6.6699
3432 1 -44.6732 -31.4903 31.1262
3426 1 -50.1887 -27.6742 24.4563
3420 1 -55.7068 -23.859 17.7864
3414 1 -40.9981 -34.0336 40.0194
654 1 -43.618 -53.2477 37.7961
3408 1 -46.5113 -30.2183 33.3495
3402 1 -52.0282 -26.4029 26.6796
3396 1 -57.5456 -22.5861 20.0097
3390 1 -42.8354 -32.7621 42.2427
3384 1 -48.3499 -28.9462 35.5728
660 1 -54.6047 -45.6166 20.0097
3378 1 -53.8677 -25.1312 28.9029
3372 1 -58.4878 -20.0287 20.0097
3366 1 -44.6732 -31.4903 44.466
3360 1 -50.1887 -27.6742 37.7961
3354 1 -55.7068 -23.859 31.1262
666 1 -49.1102 -49.4342 26.6796
3348 1 -40.9981 -34.0336 53.3593
3342 1 -46.5114 -30.2183 46.6893
3336 1 -52.0282 -26.4029 40.0194
3330 1 -57.5456 -22.5861 33.3495
3324 1 -42.8354 -32.7621 55.5826
672 1 -43.618 -53.2477 33.3495
3318 1 -48.3499 -28.9462 48.9126
3312 1 -53.8677 -25.1312 42.2427
3306 1 -58.4878 -20.0287 33.3495
3300 1 -44.6732 -31.4903 57.8058
3294 1 -50.1887 -27.6742 51.1359
678 1 -54.6047 -45.6166 15.5631
3288 1 -55.7068 -23.859 44.466
3282 1 -40.998 -34.0336 66.6991
3276 1 -46.5113 -30.2183 60.0291
3270 1 -52.0282 -26.4029 53.3592
3264 1 -57.5456 -22.5861 46.6893
684 1 -49.1102 -49.4342 22.233
3258 1 -42.8354 -32.7621 68.9224
3252 1 -48.3499 -28.9462 62.2524
3246 1 -53.8677 -25.1312 55.5825
3240 1 -58.4878 -20.0287 46.6893
3234 1 -44.6732 -31.4903 71.1457
690 1 -43.618 -53.2477 28.9029
3228 1 -50.1887 -27.6742 64.4757
3222 1 -55.7068 -23.859 57.8058
3216 1 -40.998 -34.0335 80.0389
3210 1 -46.5113 -30.2183 73.3689
3204 1 -52.0282 -26.4029 66.699
696 1 -54.6047 -45.6166 11.1165
3198 1 -57.5456 -22.5861 60.0291
3192 1 -42.8354 -32.7621 82.2621
3186 1 -48.3498 -28.9462 75.5922
3180 1 -53.8677 -25.1312 68.9223
3174 1 -58.4878 -20.0287 60.0291
702 1 -49.1102 -49.4342 17.7864
3168 1 -44.6731 -31.4903 84.4854
3162 1 -50.1887 -27.6742 77.8155
3156 1 -55.7068 -23.859 71.1456
3150 1 -42.8354 -32.7621 91.1553
3144 1 -48.3498 -28.9462 84.4854
708 1 -43.618 -53.2477 24.4563
3138 1 -53.8677 -25.1312 77.8155
3132 1 -58.4878 -20.0287 68.9223
3126 1 -50.1887 -27.6742 86.7087
3120 1 -55.7068 -23.859 80.0388
3114 1 -50.1887 -27.6742 91.1553
714 1 -54.6047 -45.6166 6.6699
3108 1 -55.7068 -23.859 84.4854
3102 1 -53.8677 -25.1312 91.1553
3096 1 -58.4878 -20.0287 82.2621
3090 1 -39.1342 -39.1451 7.68109e-06
3084 1 -40.9689 -37.8737 6.66989
720 1 -49.1102 -49.4342 13.3398
3078 1 -46.4765 -34.058 3.64744e-06
3072 1 -44.6402 -35.3301 6.66989
3066 1 -50.1504 -31.5136 1.24156e-06
3060 1 -44.6402 -35.3301 11.1165
3054 1 -50.1504 -31.5136 4.4466
726 1 -43.618 -53.2477 20.0097
3048 1 -40.969 -37.8737 20.0097
3042 1 -46.4765 -34.058 13.3398
3036 1 -51.9879 -30.2417 6.6699
3030 1 -57.5025 -26.4264 0
3024 1 -44.6402 -35.3301 20.0097
732 1 -55.5093 -46.9016 4.4466
3018 1 -50.1504 -31.5137 13.3398
3012 1 -55.6645 -27.6988 6.6699
3006 1 -40.969 -37.8737 28.9029
3000 1 -46.4765 -34.058 22.233
2994 1 -51.9879 -30.2417 15.5631
738 1 -50.0149 -50.7178 11.1165
2988 1 -57.5025 -26.4264 8.8932
2982 1 -42.8043 -36.602 31.1262
2976 1 -48.3133 -32.7858 24.4563
2970 1 -53.8262 -28.9705 17.7864
2964 1 -58.4427 -23.8697 8.8932
744 1 -44.5251 -54.5345 17.7864
2958 1 -44.6402 -35.3301 33.3495
2952 1 -50.1504 -31.5137 26.6796
2946 1 -55.6645 -27.6988 20.0097
2940 1 -40.969 -37.8737 42.2427
2934 1 -46.4765 -34.058 35.5728
750 1 -51.8459 -49.4458 4.4466
2928 1 -51.9879 -30.2417 28.9029
2922 1 -57.5025 -26.4264 22.233
2916 1 -42.8044 -36.602 44.466
2910 1 -48.3133 -32.7858 37.7961
2904 1 -53.8262 -28.9705 31.1262
756 1 -46.3544 -53.262 11.1165
2898 1 -58.4427 -23.8697 22.233
2892 1 -44.6402 -35.3301 46.6893
2886 1 -50.1504 -31.5137 40.0194
2880 1 -55.6645 -27.6988 33.3495
2874 1 -40.969 -37.8737 55.5826
762 1 -50.0149 -50.7178 2.2233
2868 1 -46.4766 -34.058 48.9126
2862 1 -51.9879 -30.2417 42.2427
2856 1 -57.5025 -26.4264 35.5728
2850 1 -42.8043 -36.602 57.8059
2844 1 -48.3133 -32.7858 51.1359
768 1 -44.5251 -54.5345 8.8932
2838 1 -53.8262 -28.9705 44.466
2832 1 -58.4427 -23.8697 35.5728
2826 1 -44.6402 -35.3301 60.0291
2820 1 -50.1504 -31.5137 53.3592
2814 1 -55.6645 -27.6988 46.6893
774 1 -44.5251 -54.5345 4.4466
2808 1 -40.969 -37.8737 68.9224
2802 1 -46.4765 -34.058 62.2524
2796 1 -51.9879 -30.2417 55.5825
2790 1 -57.5025 -26.4264 48.9126
2784 1 -42.8043 -36.602 71.1457
780 1 -58.2982 -39.2312 84.4854
2778 1 -48.3133 -32.7858 64.4757
2772 1 -53.8262 -28.9705 57.8058
2766 1 -58.4427 -23.8697 48.9126
2760 1 -44.6402 -35.3301 73.3689
2754 1 -50.1504 -31.5137 66.699
786 1 -58.2982 -39.2312 80.0388
2748 1 -55.6645 -27.6988 60.0291
2742 1 -40.9689 -37.8737 82.2621
2736 1 -46.4765 -34.058 75.5922
2730 1 -51.9879 -30.2417 68.9223
2724 1 -57.5025 -26.4264 62.2524
792 1 -53.7004 -44.3316 88.932
2718 1 -42.8043 -36.602 84.4854
2712 1 -48.3133 -32.7858 77.8155
2706 1 -53.8262 -28.9705 71.1456
2700 1 -58.4427 -23.8697 62.2524
2694 1 -44.6402 -35.3301 86.7087
798 1 -57.3671 -41.7878 80.0388
2688 1 -50.1504 -31.5136 80.0388
2682 1 -55.6645 -27.6988 73.3689
2676 1 -44.6402 -35.3301 91.1553
2670 1 -50.1504 -31.5136 84.4854
2664 1 -55.6645 -27.6988 77.8155
804 1 -51.8676 -45.6031 86.7087
2658 1 -48.3133 -32.7858 91.1553
2652 1 -53.8262 -28.9705 84.4854
2646 1 -58.4427 -23.8697 75.5922
2640 1 -55.6645 -27.6988 86.7087
2634 1 -55.6645 -27.6988 91.1553
810 1 -58.2982 -39.2312 71.1456
2628 1 -58.4427 -23.8697 88.932
2622 1 -42.777 -40.4432 2.2233
2616 1 -42.7771 -40.4432 6.66989
2610 1 -48.2809 -36.626 1.8774e-06
2604 1 -44.6111 -39.1708 8.89319
816 1 -53.7004 -44.3316 80.0388
2598 1 -50.1163 -35.3535 2.2233
2592 1 -42.7771 -40.4432 15.5631
2586 1 -48.2809 -36.626 8.89319
2580 1 -53.7891 -32.81 2.2233
2574 1 -42.7771 -40.4432 20.0097
822 1 -48.2048 -48.1489 86.7087
2568 1 -48.2809 -36.626 13.3398
2562 1 -53.7891 -32.81 6.6699
2556 1 -39.111 -42.9876 28.9029
2550 1 -43.7077 -37.8864 20.0097
2544 1 -49.2146 -34.0697 13.3398
828 1 -58.2982 -39.2312 66.699
2538 1 -54.7259 -30.2544 6.6699
2532 1 -40.039 -40.4303 28.9029
2526 1 -45.5429 -36.6142 22.233
2520 1 -51.0512 -32.7974 15.5631
2514 1 -56.5637 -28.9826 8.8932
834 1 -53.7004 -44.3316 75.5922
2508 1 -41.873 -39.1584 31.1262
2502 1 -47.3785 -35.342 24.4563
2496 1 -52.8882 -31.5257 17.7864
2490 1 -39.111 -42.9876 42.2427
2484 1 -43.7077 -37.8864 33.3495
840 1 -48.2048 -48.1489 82.2621
2478 1 -49.2146 -34.0697 26.6796
2472 1 -54.7259 -30.2544 20.0097
2466 1 -40.039 -40.4303 42.2427
2460 1 -45.5429 -36.6142 35.5728
2454 1 -51.0512 -32.7974 28.9029
846 1 -42.7111 -51.961 88.932
2448 1 -56.5637 -28.9826 22.233
2442 1 -41.873 -39.1584 44.466
2436 1 -47.3786 -35.342 37.7961
2430 1 -52.8882 -31.5257 31.1262
2424 1 -39.111 -42.9876 55.5825
852 1 -54.6299 -41.775 66.699
2418 1 -44.6112 -39.1708 48.9126
2412 1 -50.1163 -35.3535 42.2427
2406 1 -55.6262 -31.5384 35.5728
2400 1 -40.9437 -41.7153 57.8058
2394 1 -46.4458 -37.8985 51.1359
858 1 -49.1313 -45.5919 73.3689
2388 1 -51.952 -34.081 44.466
2382 1 -57.4632 -30.2664 37.7961
2376 1 -42.7771 -40.4432 60.0291
2370 1 -48.2809 -36.626 53.3592
2364 1 -53.7891 -32.81 46.6893
864 1 -43.6393 -49.4142 80.0388
2358 1 -58.4011 -27.7101 37.7961
2352 1 -44.6112 -39.1708 62.2524
2346 1 -50.1163 -35.3535 55.5825
2340 1 -55.6262 -31.5384 48.9126
6552 1 -39.4477 -4.63119 2.22332
870 1 -39.0531 -54.5056 88.932
2328 1 -43.7077 -37.8864 64.4758
2322 1 -49.2146 -34.0697 57.8058
2316 1 -54.7259 -30.2544 51.1359
2310 1 -40.0389 -40.4302 73.369
2304 1 -45.5429 -36.6142 66.699
876 1 -52.7962 -43.0466 64.4757
2298 1 -51.0512 -32.7974 60.0291
2292 1 -56.5637 -28.9826 53.3592
2286 1 -41.873 -39.1583 75.5923
2280 1 -47.3785 -35.342 68.9223
2274 1 -52.8882 -31.5257 62.2524
882 1 -47.2992 -46.866 71.1456
2268 1 -39.1109 -42.9876 86.7087
2262 1 -43.7076 -37.8864 77.8155
2256 1 -49.2146 -34.0697 71.1456
2250 1 -54.7259 -30.2544 64.4757
2244 1 -40.0389 -40.4302 86.7087
888 1 -41.8099 -50.699 77.8155
2238 1 -45.5429 -36.6142 80.0388
2232 1 -51.0512 -32.7974 73.3689
2226 1 -56.5637 -28.9826 66.699
2220 1 -43.7076 -37.8864 86.7087
2214 1 -49.2146 -34.0697 80.0388
894 1 -56.464 -40.5033 55.5825
2208 1 -54.7259 -30.2544 73.3689
2202 1 -45.5429 -36.6142 88.932
2196 1 -51.0512 -32.7974 82.2621
2190 1 -56.5637 -28.9826 75.5922
2184 1 -51.0512 -32.7974 86.7087
900 1 -50.9638 -44.3191 62.2524
2178 1 -56.5637 -28.9826 80.0388
2172 1 -54.7259 -30.2544 86.7087
2166 1 -56.5637 -28.9826 88.932
2160 1 -40.0164 -44.2728 3.48476e-06
2154 1 -41.8484 -43.0008 2.2233
906 1 -45.4669 -48.1424 68.9223
2148 1 -40.0164 -44.2728 8.89319
2142 1 -45.5148 -40.4553 2.2233
2136 1 -40.0164 -44.2728 13.3398
2130 1 -45.5148 -40.4553 6.66989
2124 1 -51.0184 -36.6373 6.42008e-07
912 1 -39.9744 -51.946 75.5922
2118 1 -41.8484 -43.0009 15.5631
2112 1 -47.3488 -39.1826 8.89319