LAMMPS data file via write_data, version 2 Aug 2023, timestep = 395, units = metal

14401 atoms
3 atom types

0.08882987421948908 65.26257639248085 xlo xhi
0.11771028751733198 61.496186420830384 ylo yhi
-22.32587450113568 75.68507427671514 zlo zhi

Masses

1 183.84
2 1.008
3 4.0026

Atoms # atomic

1 1 0.9940182314971476 28.249510720538424 0.005248182060412671 0 0 0
1548 1 27.24444741069395 0.11794296430548354 8.848470105741725 0 0 0
3 1 0.9940206873548014 20.577202252962028 0.005248677063531511 0 0 0
4 1 0.9940201721396503 24.413356714033842 2.1641591689620174 0 0 0
1400 1 27.244545718914726 0.11772208452688769 4.390569221679352 0 0 0
6 1 2.8044016279595034 23.134638174538352 0.005248437966615939 0 0 0
7 1 0.9940186563534704 28.24951062785833 4.390740726640099 0 0 0
1381 1 24.52888429154034 0.11789422702328987 8.848477704401038 0 0 0
9 1 2.80439921735145 26.97079145730139 2.1641590178162273 0 0 0
10 1 1.899210049385 25.69207440019809 0.0052483244677917215 0 0 0
11 1 4.61477910754513 25.692071943236023 0.0052472742578503475 0 0 0
12 1 2.8043941059447723 30.80694395195469 4.390741122340459 0 0 0
13 1 1.8992069960090596 29.528227608295463 2.164158943062723 0 0 0
14 1 4.614772061055081 29.528222808173886 2.1641584429955465 0 0 0
15 1 3.7095856147819686 28.24950755427493 0.005246802313313855 0 0 0
16 1 6.425148392260455 28.249501006332356 0.005243938534227979 0 0 0
17 1 8.23550678635251 30.806925451627393 0.005238382143700448 0 0 0
18 1 0.9940208537042051 12.90489285396923 0.005248692593684664 0 0 0
19 1 0.9940207866554802 16.74104756492586 2.164159201551665 0 0 0
5351 1 27.244532455621453 30.806879331598427 22.22192408990888 0 0 0
21 1 2.80440262317773 15.462329300932772 0.005248700371580129 0 0 0
22 1 0.9940206550340941 20.577202227144817 4.390740725240307 0 0 0
7909 1 32.67570311957818 15.462329358734955 22.2218392008936 0 0 0
24 1 2.8044024418194904 19.298483908351827 2.1641591804854325 0 0 0
25 1 1.8992116639010108 18.019765785440363 0.005248691854279474 0 0 0
26 1 4.614784223682818 18.019765599897013 0.005248618506088735 0 0 0
27 1 0.9940201744925526 24.413356767324068 6.619628531597163 0 0 0
5323 1 29.960098157860628 30.80677522461052 17.76422379089838 0 0 0
29 1 2.8044016218137497 23.1346381069181 4.390740742732461 0 0 0
30 1 1.899211359536274 21.855920304962563 2.164159170550658 0 0 0
31 1 4.6147831615320465 21.855919468282238 2.164159068068713 0 0 0
32 1 3.709593009488152 20.57720192278022 0.005248543293110554 0 0 0
33 1 6.4251645782429945 20.57720084314948 0.005248122883612146 0 0 0
34 1 0.9940195367979495 28.24951098629989 8.84851927492328 0 0 0
20 1 0.08882989578850697 15.462329339574536 0.005248700632284801 0 0 0
36 1 2.8043993566459706 26.97079172897543 6.619628893786511 0 0 0
37 1 1.8992101008870275 25.692074390822377 4.390740766290981 0 0 0
38 1 4.614779788382199 25.692072021518467 4.390740890975226 0 0 0
39 1 3.709591336445547 24.41335544293207 2.1641590305415472 0 0 0
40 1 6.425160500377937 24.413352296065153 2.164158625441546 0 0 0
41 1 5.519972144459445 23.134636450653883 0.005247740917754857 0 0 0
42 1 8.235540655423653 23.134632484173704 0.00524622225591562 0 0 0
43 1 2.8043960733413997 30.80694506509071 8.848520545978692 0 0 0
44 1 1.899207549751922 29.528227850223537 6.619629013984432 0 0 0
45 1 4.614773100363671 29.528223745229557 6.619630044288678 0 0 0
46 1 3.7095868544987067 28.249507839304698 4.390741025724023 0 0 0
47 1 6.4251517614675295 28.249501933531096 4.390741380337796 0 0 0
48 1 5.519966487040281 26.970787319726384 2.164158502152581 0 0 0
49 1 8.235530452649972 26.970779802481275 2.164157137555401 0 0 0
50 1 7.330344968394034 25.692066539052206 0.005245084755525589 0 0 0
51 1 10.045908058700144 25.692057152129934 0.005241636375249507 0 0 0
52 1 7.330332788434994 29.52821437224268 2.1641567363548577 0 0 0
53 1 10.045889939425688 29.528201736023995 2.1641532598876525 0 0 0
54 1 9.140707422330946 28.249490221431188 0.005239769635927837 0 0 0
55 1 11.856264594215261 28.249474574557095 0.005234290717867245 0 0 0
56 1 13.666612585267703 30.80688975742792 0.0052237939658760215 0 0 0
57 1 0.9940224219883592 5.232584206180629 0.005248336873281774 0 0 0
58 1 0.9940211495122271 9.068738325532589 2.164159171340415 0 0 0
5261 1 29.960075755667933 30.806635604456915 13.306444427650765 0 0 0
60 1 2.8044028433831065 7.790019916545166 0.005248671447847806 0 0 0
61 1 0.9940208732213573 12.90489287484156 4.390740723113384 0 0 0
5157 1 27.24445133362682 30.806613515608493 8.848570954695738 0 0 0
63 1 2.804402674916949 11.62617459005517 2.164159201642365 0 0 0
64 1 1.8992118273733898 10.347456384419733 0.005248678773671731 0 0 0
65 1 4.614784504491205 10.347456313658055 0.005248712326102811 0 0 0
66 1 0.9940207866056497 16.741047564811073 6.619628468016302 0 0 0
672 1 10.951099276995699 0.11772783281894306 4.3907389900719265 0 0 0
68 1 2.8044026124712755 15.462329291130818 4.390740723566804 0 0 0
69 1 1.8992117320945343 14.183611075456916 2.164159201617263 0 0 0
70 1 4.6147844496364705 14.183611025697804 2.1641591989745215 0 0 0
71 1 3.70959356263508 12.904892812967343 0.00524870388742114 0 0 0
72 1 6.425166302982651 12.904892770792527 0.005248696207201474 0 0 0
73 1 0.9940207073830327 20.577202276690176 8.848518968547333 0 0 0
1185 1 21.813387438416626 0.11776388708014374 4.390660295037254 0 0 0
75 1 2.804402433869537 19.29848391622313 6.6196284900268525 0 0 0
76 1 1.8992116445720484 18.019765764373325 4.3907407232769335 0 0 0
77 1 4.614784178951835 18.019765538916197 4.390740723834884 0 0 0
78 1 3.709593469735944 16.741047479407083 2.164159190905138 0 0 0
79 1 6.42516600548384 16.741047212441497 2.1641591523359236 0 0 0
80 1 5.519975302169133 15.462329213627344 0.005248665663821605 0 0 0
81 1 8.235547853198918 15.462328936233064 0.005248565372568323 0 0 0
82 1 0.9940205604980716 24.41335696322096 11.077407779585926 0 0 0
5141 1 21.81329316190245 30.806785039104614 13.306382622758957 0 0 0
84 1 2.8044019265691125 23.13463837139048 8.848519115399766 0 0 0
85 1 1.8992113463560594 21.85592033382214 6.619628511250826 0 0 0
86 1 4.614783152263579 21.85591954874495 6.6196286382866125 0 0 0
87 1 3.709592968960197 20.57720184676635 4.3907407281894795 0 0 0
88 1 6.425164616999884 20.577200726413356 4.390740748094051 0 0 0
89 1 5.519974707422178 19.298483402712687 2.1641591131553977 0 0 0
90 1 8.235546376942516 19.298482110816384 2.164158933006268 0 0 0
91 1 7.330356432016251 18.01976501212656 0.0052483946710841995 0 0 0
92 1 10.045928121730128 18.01976359791867 0.005247898637155281 0 0 0
93 1 0.9940205331018467 28.24951152916296 13.306297929806187 0 0 0
5012 1 29.96010162354808 30.806790939181678 4.390687775625061 0 0 0
95 1 2.8044009666066705 26.97079267809374 11.077408253824975 0 0 0
96 1 1.899210616935625 25.692074738944562 8.848519191061389 0 0 0
97 1 4.614780749158953 25.69207291365722 8.848519844071918 0 0 0
98 1 3.7095913654471566 24.41335561194753 6.6196287546083115 0 0 0
99 1 6.425160689087642 24.413352722520536 6.619629237272174 0 0 0
100 1 5.519972411647882 23.134636393773786 4.3907407970272345 0 0 0
101 1 8.235541591362004 23.134632680098523 4.390740885637444 0 0 0
102 1 7.330353820662354 21.85591731898592 2.1641587815080685 0 0 0
103 1 10.04592308998047 21.855913111584798 2.164158123375036 0 0 0
104 1 9.140735035762404 20.57719829350322 0.005247188833725214 0 0 0
105 1 11.856304425427073 20.57719350469611 0.0052455825508591425 0 0 0
694 1 19.09779487723056 0.11775921847491432 0.0052228755474693946 0 0 0
107 1 1.8992097414763183 29.528228947303695 11.07740843443137 0 0 0
108 1 4.61477704864963 29.528226151164894 11.077410205544114 0 0 0
109 1 3.709588248370923 28.24950891127973 8.848520201783103 0 0 0
110 1 6.425153773792492 28.249503890778396 8.84852194580129 0 0 0
111 1 5.51996699780931 26.970788016813707 6.619629623445156 0 0 0
112 1 8.235531763321204 26.970781189195904 6.619630805396652 0 0 0
113 1 7.330346955251326 25.69206707544371 4.3907410835321965 0 0 0
114 1 10.045911695605486 25.69205864785981 4.390741046247617 0 0 0
115 1 9.140727415456947 24.413346304013118 2.1641576265577975 0 0 0
116 1 11.856292568463559 24.413336836346556 2.1641556913006044 0 0 0
117 1 10.95110732268912 23.13462529892114 0.005243694178552203 0 0 0
118 1 13.666673367066348 23.13461437642233 0.005240223458778455 0 0 0
119 1 7.330335298513965 29.528216234095257 6.619631598993815 0 0 0
120 1 10.045893209296164 29.528204088279455 6.619633639130844 0 0 0
121 1 9.140713082365952 28.24949210220241 4.3907413452362585 0 0 0
122 1 11.856271607549983 28.249477376725668 4.390739762128825 0 0 0
123 1 10.951091812085869 26.970768191943538 2.1641543960464324 0 0 0
124 1 13.66665263802718 26.97075200775797 2.1641498235334384 0 0 0
125 1 12.761470130802623 25.692043297210112 0.00523700943657577 0 0 0
126 1 15.477034405513434 25.692025242182602 0.005231315919476603 0 0 0
127 1 10.951067052961346 30.806911537662653 4.390739424544874 0 0 0
128 1 13.666618731054113 30.806889808426217 4.390732907791524 0 0 0
129 1 12.76144543782172 29.528183857018448 2.1641474150442916 0 0 0
130 1 15.477005292956852 29.528161383187243 2.1641367880324753 0 0 0
131 1 14.571824301863963 28.249454320261275 0.005226949145675894 0 0 0
132 1 17.287392332055155 28.249431381605117 0.0052168122381810724 0 0 0
133 1 16.382177665014627 30.806867971069963 0.005209228141162035 0 0 0
134 1 0.9940253950545109 1.3964309664718897 2.1641589388751123 0 0 0
1549 1 29.96002829152713 0.11800374767764664 8.848490828338003 0 0 0
673 1 13.666661100729087 0.11774197609458525 4.3907356426497754 0 0 0
137 1 0.9940223818093478 5.232584221545753 4.390740760781206 0 0 0
1753 1 30.86531336231933 1.3964617953035179 24.450761077567478 0 0 0
139 1 2.804403540311508 3.953865506451861 2.16415907659328 0 0 0
140 1 1.8992142056739911 2.67514787932465 0.005248193806359746 0 0 0
141 1 4.614784518558243 2.675147225250266 0.005248017226318088 0 0 0
142 1 0.9940211656051534 9.068738299536955 6.619628509139503 0 0 0
7470 1 32.67568770258481 0.11775211093965916 4.390622503280863 0 0 0
144 1 2.8044029110994964 7.790019919012952 4.390740724220521 0 0 0
145 1 1.8992123283188909 6.5113019104219925 2.1641591688349835 0 0 0
146 1 4.614784621777329 6.511301581312605 2.1641591197622407 0 0 0
147 1 3.709593984880962 5.232583374879424 0.005248631714684442 0 0 0
148 1 6.425165967987448 5.232583546379651 0.005248122212510641 0 0 0
149 1 0.9940208447445901 12.90489285022453 8.848518959750828 0 0 0
1752 1 30.865320682070305 9.068742588299369 24.450723387915595 0 0 0
151 1 2.804402682932667 11.626174583953869 6.619628470148719 0 0 0
152 1 1.8992118609461606 10.347456409733768 4.390740724859496 0 0 0
153 1 4.614784535772615 10.347456292216489 4.390740722881014 0 0 0
154 1 3.7095936545448436 9.068738078682332 2.1641592049940983 0 0 0
155 1 6.425166356058232 9.068738036508902 2.1641591368594515 0 0 0
156 1 5.519975518042961 7.790019733586711 0.005248690040516263 0 0 0
157 1 8.235547850118005 7.790020008624724 0.005248209165761087 0 0 0
158 1 0.9940207941674537 16.741047570860708 11.077407717554618 0 0 0
693 1 16.382224901184536 0.11776099940106377 0.005232428139359959 0 0 0
160 1 2.804402624350631 15.46232930279062 8.848518955054733 0 0 0
161 1 1.899211732528609 14.183611075851077 6.619628467950903 0 0 0
162 1 4.614784450375511 14.18361102171107 6.619628471213717 0 0 0
163 1 3.7095935646771454 12.904892808387086 4.390740724983269 0 0 0
164 1 6.425166301543193 12.904892730025548 4.390740721900487 0 0 0
165 1 5.519975422034193 11.626174529956932 2.164159206373757 0 0 0
166 1 8.235548136829978 11.626174492982857 2.1641591413059293 0 0 0
167 1 7.330357304152796 10.347456230146507 0.0052486859727753155 0 0 0
168 1 10.045929758656278 10.34745642806348 0.005248306184991489 0 0 0
169 1 0.9940207741423485 20.57720232000799 13.306297737135576 0 0 0
890 1 2.8044022748568245 0.11771056276317893 17.76407241690667 0 0 0
171 1 2.8044025553655 19.29848401280066 11.077407743113483 0 0 0
172 1 1.899211674058753 18.019765790067712 8.848518960156449 0 0 0
173 1 4.6147842733285 18.01976563699955 8.848519001540287 0 0 0
174 1 3.7095934630747105 16.741047481568444 6.619628477582425 0 0 0
175 1 6.425165993165878 16.74104721699632 6.619628511522785 0 0 0
176 1 5.519975273151186 15.462329170438272 4.390740723848766 0 0 0
177 1 8.235547808832097 15.46232883621916 4.390740720525028 0 0 0
178 1 7.330357138267882 14.183610888632069 2.164159180848498 0 0 0
179 1 10.04592968959118 14.183610613904746 2.164159097028507 0 0 0
180 1 9.140739022323695 12.90489261923207 0.005248633339667293 0 0 0
181 1 11.856311469874061 12.904892561381844 0.005248310904579578 0 0 0
182 1 0.9940207628691878 24.413357060423902 15.535185015229784 0 0 0
1751 1 30.865316163971013 5.23260993374589 22.22186232520146 0 0 0
184 1 2.804402410760503 23.13463869527167 13.306297821106293 0 0 0
185 1 1.8992115642430634 21.855920488738914 11.077407762054227 0 0 0
186 1 4.614783790302575 21.85592006749177 11.077407951290988 0 0 0
187 1 3.7095931482976443 20.57720201475144 8.848519047816652 0 0 0
188 1 6.4251650015147455 20.57720116337305 8.848519282873596 0 0 0
189 1 5.519974687345721 19.298483433698603 6.619628559549228 0 0 0
190 1 8.235546362567227 19.29848219077617 6.619628722742873 0 0 0
191 1 7.330356388956156 18.019764891266295 4.3907407281038395 0 0 0
192 1 10.045928139108911 18.01976346662897 4.39074073370129 0 0 0
193 1 9.140738281816928 16.74104653176459 2.1641590543144322 0 0 0
194 1 11.85631018843319 16.741045210187494 2.164158842932904 0 0 0
195 1 10.951120201250767 15.462328256168414 0.005248323198796266 0 0 0
196 1 13.666692247596714 15.46232708691979 0.005247802278564967 0 0 0
197 1 0.9940208196732383 28.24951176159186 17.764072252704455 0 0 0
1750 1 31.770510694139322 6.511312719536881 24.450730087079574 0 0 0
199 1 2.804402222210916 26.970793363470243 15.53518519711714 0 0 0
200 1 1.8992113893684637 25.692075156740085 13.306297857951714 0 0 0
201 1 4.614782877099346 25.692074350938803 13.30629840769709 0 0 0
202 1 3.7095924160289173 24.413356361405334 11.077408093820788 0 0 0
203 1 6.425162739204054 24.41335444045149 11.077408970203996 0 0 0
204 1 5.5199730477191595 23.134637049312996 8.848519524163837 0 0 0
205 1 8.235542615107377 23.134633960640077 8.848520361690923 0 0 0
206 1 7.330353852346767 21.8559175328836 6.619628934879151 0 0 0
207 1 10.045923276203876 21.855913556581072 6.619629454465009 0 0 0
208 1 9.140735339527478 20.57719826413697 4.390740778206168 0 0 0
209 1 11.856305158781973 20.5771939228767 4.390740776424113 0 0 0
210 1 10.9511173006458 19.29847953381864 2.1641585528552034 0 0 0
211 1 13.666687611084413 19.298475282500263 2.16415789271066 0 0 0
212 1 12.76149928254404 18.01976086435389 0.005247016109528321 0 0 0
213 1 15.477070197170033 18.01975653326113 0.005245705256654362 0 0 0
214 1 2.804402122308663 30.806948044737382 17.76407253567579 0 0 0
215 1 1.89921130422518 29.528229778215508 15.535185278153836 0 0 0
216 1 4.614781794104874 29.528228725564954 15.535186334998665 0 0 0
217 1 3.7095913175749637 28.249510652060994 13.306298658573615 0 0 0
218 1 6.425159246160566 28.249507572029593 13.306300834081604 0 0 0
219 1 5.519969945862043 26.97079016435168 11.077409577429934 0 0 0
220 1 8.235536087747604 26.970784845478374 11.077411971103494 0 0 0
221 1 7.330348442921673 25.692068746322256 8.84852110331769 0 0 0
222 1 10.04591373410003 25.69206134768557 8.848523074792631 0 0 0
223 1 9.140727970989474 24.413347168696397 6.619630064578763 0 0 0
224 1 11.85629360836337 24.413338242729935 6.619631105650677 0 0 0
225 1 10.951109223437784 23.134626250728513 4.390740862154545 0 0 0
226 1 13.666676010980582 23.134616748614842 4.390740478974028 0 0 0
227 1 12.761491265977012 21.855906287965702 2.1641569221991643 0 0 0
228 1 15.477059456023756 21.85589684487815 2.1641550871819897 0 0 0
229 1 14.571873431012841 20.577186008929537 0.005243314641040435 0 0 0
230 1 17.287443287583642 20.577176073251053 0.005240700085319521 0 0 0
231 1 8.235528429366742 30.80693705587194 13.306306519801916 0 0 0
232 1 7.330340724151193 29.528220106931684 11.07741335940316 0 0 0
233 1 10.045901270942275 29.528210541428397 11.077417703625645 0 0 0
234 1 9.140716164175881 28.249495411832882 8.84852449031871 0 0 0
235 1 11.856274784040428 28.24948167934544 8.848528145256081 0 0 0
236 1 10.951093791359547 26.97077016676048 6.619632300423311 0 0 0
237 1 13.666654332274618 26.970754040776608 6.619633090626952 0 0 0
238 1 12.761474903452095 25.69204622663232 4.390740160380999 0 0 0
239 1 15.477038438938555 25.692029685044787 4.390737681845476 0 0 0
240 1 14.571857641744437 24.41332370263186 2.1641525651264595 0 0 0
241 1 17.287425433492906 24.41330785569315 2.164148181297613 0 0 0
242 1 16.38224101390536 23.13460016826088 0.005236220835943047 0 0 0
243 1 19.097812585691937 23.13458399273699 0.005232222356110601 0 0 0
244 1 10.951072100059921 30.80691652283148 8.848530573437202 0 0 0
245 1 13.666620130244306 30.80689282832895 8.848534985497274 0 0 0
246 1 12.761447484939426 29.528185318825606 6.619634263502465 0 0 0
247 1 15.477000868786984 29.528158376715908 6.619631091463422 0 0 0
248 1 14.571829741353788 28.249457167094928 4.390735437547271 0 0 0
249 1 17.287392015164592 28.249432116029517 4.390725999026322 0 0 0
250 1 16.382217282472485 26.970732064893603 2.164142530988651 0 0 0
251 1 19.097789997964565 26.970710834089626 2.1641319935465724 0 0 0
252 1 18.192604807585788 25.69200477635867 0.005224975660537086 0 0 0
253 1 20.90818455392505 25.69198581023751 0.005217712656062224 0 0 0
254 1 19.09773767986496 30.806828792099548 4.390694682538587 0 0 0
255 1 18.19257647039875 29.5281387973885 2.164118800351093 0 0 0
256 1 20.908161120719594 29.528121768075312 2.1640951284930603 0 0 0
257 1 20.002974296275582 28.249412057303143 0.005203325440809817 0 0 0
258 1 22.718569182519033 28.249410995252134 0.005186789106240451 0 0 0
259 1 24.528977193148915 30.8069471467546 0.005172873268164929 0 0 0
260 1 0.9940248736213546 1.3964307476087212 6.619628993345072 0 0 0
898 1 5.519972156548324 0.11771233991539276 13.306298888423163 0 0 0
7370 1 32.67570188200086 15.462328921693786 8.848524568026821 0 0 0
263 1 0.9940218774408504 5.232583886610789 8.848519182694327 0 0 0
899 1 8.235539953351166 0.11771586464723072 13.306300885706017 0 0 0
265 1 2.8044032799310825 3.9538655780851495 6.61962851281018 0 0 0
266 1 1.8992137928582407 2.6751479857426825 4.390740717221777 0 0 0
267 1 4.614783238256111 2.675148152371634 4.390740427776186 0 0 0
268 1 3.7095935210327533 1.3964298662479582 2.1641586096748724 0 0 0
269 1 6.425161073424328 1.3964323713227962 2.1641576371954514 0 0 0
5352 1 29.960116977963327 30.8068722421599 22.221931185216135 0 0 0
5322 1 27.244498900981995 30.806791927191817 17.764212627762436 0 0 0
272 1 0.9940209517946722 9.068738149391136 11.077407760144746 0 0 0
5315 1 24.528953692124134 30.806892070790987 22.221909507521598 0 0 0
274 1 2.8044027948348154 7.790019868354305 8.848518969403393 0 0 0
275 1 1.8992123284125146 6.511301863529406 6.619628527479602 0 0 0
276 1 4.61478441994586 6.511301723058062 6.619628426202512 0 0 0
277 1 3.7095938300188394 5.232583533340438 4.39074064979346 0 0 0
278 1 6.4251648293891455 5.232584529784097 4.390740437674888 0 0 0
279 1 5.5199743994006605 3.9538659707385815 2.1641586359212885 0 0 0
280 1 8.235543302962054 3.953869001035775 2.1641576923501002 0 0 0
281 1 7.3303534193645765 2.675149517357366 0.005245945964521877 0 0 0
282 1 10.04591900267249 2.675156073818848 0.005242720734954577 0 0 0
283 1 0.994020810658644 12.904892823997718 13.306297734506655 0 0 0
913 1 10.951099704005859 0.11772701087402737 8.848522717427475 0 0 0
285 1 2.8044026599035603 11.626174567013669 11.077407717856966 0 0 0
286 1 1.8992118102487803 10.347456362405483 8.848518967557414 0 0 0
287 1 4.614784509457572 10.347456302630826 8.848518945138503 0 0 0
288 1 3.7095936587761336 9.068738071991449 6.619628465465196 0 0 0
289 1 6.425166192526131 9.068738174426171 6.6196284273042485 0 0 0
290 1 5.519975369147029 7.790019873278317 4.390740655119626 0 0 0
291 1 8.235546912583755 7.790020933944175 4.390740486802384 0 0 0
292 1 7.330356262891237 6.511302399781745 2.1641586974112896 0 0 0
293 1 10.04592600298015 6.511305309075264 2.164157878799841 0 0 0
294 1 9.140735847182002 5.232586052837034 0.005246215452591179 0 0 0
295 1 11.85630290778787 5.232592928654336 0.00524341002383442 0 0 0
296 1 0.9940207973359217 16.741047573295166 15.535184997102103 0 0 0
914 1 13.666660531440796 0.11774114200087382 8.848523307672025 0 0 0
298 1 2.8044026396742097 15.462329315646418 13.306297732513908 0 0 0
299 1 1.899211725529374 14.183611070401506 11.077407717478161 0 0 0
300 1 4.614784475293686 14.183611046742673 11.077407720872223 0 0 0
301 1 3.7095935683424583 12.90489280730869 8.848518952557951 0 0 0
302 1 6.425166305642911 12.904892766708613 8.848518954266499 0 0 0
303 1 5.519975420322158 11.62617452890214 6.619628462028503 0 0 0
304 1 8.235548016627918 11.626174605902664 6.619628446012699 0 0 0
305 1 7.330357171343982 10.347456342175509 4.390740669047305 0 0 0
306 1 10.045929059465854 10.34745720019015 4.390740553924954 0 0 0
307 1 9.140738315252161 9.068738778524454 2.164158787391695 0 0 0
308 1 11.856308848986359 9.068741329932028 2.164158162096568 0 0 0
309 1 10.951118490583271 7.790022319699905 0.005246668158030679 0 0 0
310 1 13.66668706157829 7.790028714453349 0.005244493949308289 0 0 0
311 1 0.9940207949437537 20.57720233037219 17.76407218960516 0 0 0
7361 1 32.67569701737817 11.626212128520425 6.619628995169417 0 0 0
313 1 2.8044026261442476 19.298484065705743 15.53518500514762 0 0 0
314 1 1.899211708969735 18.01976581724349 13.306297734730565 0 0 0
315 1 4.614784417662158 18.01976576374991 13.306297761421922 0 0 0
316 1 3.709593523210309 16.74104753471473 11.077407729458155 0 0 0
317 1 6.425166163718057 16.741047396131965 11.077407778414774 0 0 0
318 1 5.519975319388009 15.462329219855897 8.848518973618159 0 0 0
319 1 8.235547901960485 15.462328986626463 8.848519025044817 0 0 0
320 1 7.330357128287733 14.183610889647449 6.619628480774081 0 0 0
321 1 10.045929607995124 14.183610697356524 6.619628506023371 0 0 0
322 1 9.140738898873439 12.904892668668293 4.390740684424432 0 0 0
323 1 11.85631098269793 12.90489306158621 4.390740617996684 0 0 0
324 1 10.951120305654081 11.62617499578385 2.1641588799654397 0 0 0
325 1 13.666691571836878 11.62617670290388 2.1641584144421517 0 0 0
326 1 12.761501097427725 10.34745830387461 0.005247206478794312 0 0 0
327 1 15.477071059234078 10.347463096244704 0.005245569600688408 0 0 0
328 1 0.9940207997925108 24.41335708293103 19.992955869911974 0 0 0
7354 1 32.67568536860757 7.790073763414299 4.390710057897413 0 0 0
330 1 2.8044026060684155 23.134638814599626 17.764072208170997 0 0 0
331 1 1.899211689637722 21.855920566785702 15.535185009444348 0 0 0
332 1 4.614784297146789 21.85592044838761 15.535185092248142 0 0 0
333 1 3.7095934276324027 20.57720223066609 13.306297787359535 0 0 0
334 1 6.425165766373137 20.577201852459776 13.306297985781013 0 0 0
335 1 5.5199750373316245 19.29848375623634 11.077407845878158 0 0 0
336 1 8.235547099031779 19.298482986059216 11.077408126553491 0 0 0
337 1 7.330356599981227 18.019765151896088 8.848519122198981 0 0 0
338 1 10.045928511214333 18.01976402404052 8.848519381358022 0 0 0
339 1 9.14073826196368 16.741046554638025 6.619628588328943 0 0 0
340 1 11.856310159218463 16.74104529900809 6.61962873616176 0 0 0
341 1 10.951120082678445 15.462328200750443 4.39074070216176 0 0 0
342 1 13.66669195299242 15.462327350615322 4.390740669034574 0 0 0
343 1 12.761501830118025 14.183610452842375 2.1641588657063404 0 0 0
344 1 15.477073387593704 14.183610668231145 2.1641584769446287 0 0 0
345 1 14.571883265681725 12.904893366443044 0.005247506202193483 0 0 0
346 1 17.287454122581227 12.904896129708131 0.0052462792023663055 0 0 0
347 1 0.9940208242028978 28.249511825523232 22.22183884209409 0 0 0
933 1 16.38222969847792 0.11775619209091559 4.390726868902695 0 0 0
349 1 2.8044025925037968 26.970793561024145 19.992955901058313 0 0 0
350 1 1.8992116767451312 25.692075308997392 17.764072216881797 0 0 0
351 1 4.61478412467082 25.692075128299543 17.76407239084012 0 0 0
352 1 3.7095932591246354 24.413356905238658 15.535185142490407 0 0 0
353 1 6.425165008353796 24.413356163183703 15.535185690470312 0 0 0
354 1 5.519974391219624 23.13463810240016 13.30629817210452 0 0 0
355 1 8.235545228194281 23.13463635109045 13.306299110900865 0 0 0
356 1 7.33035515100231 21.855918770730664 11.077408476330849 0 0 0
357 1 10.04592537971155 21.855915894150268 11.077409523168493 0 0 0
358 1 9.140735990399097 20.57719914682443 8.848519781299425 0 0 0
359 1 11.856306073373016 20.577195401907414 8.848520621661708 0 0 0
360 1 10.95111734470222 19.298479713194066 6.619629017651404 0 0 0
361 1 13.666687782163702 19.298475655987755 6.619629454494919 0 0 0
362 1 12.7614993973898 18.019760961277207 4.3907407304570025 0 0 0
363 1 15.47707034497693 18.01975737618087 4.390740722669339 0 0 0
364 1 14.571881694802602 16.74104317113226 2.1641584574852772 0 0 0
365 1 17.287452895332628 16.74104063996352 2.1641579289468624 0 0 0
366 1 16.382263889743 15.462325716809953 0.005246859927794088 0 0 0
367 1 19.09783519490205 15.462324872481467 0.0052456044263399955 0 0 0
368 1 2.8044026029824005 30.80694830775937 22.221838881406857 0 0 0
369 1 1.8992117037840341 29.528230037427385 19.99295592908554 0 0 0
370 1 4.614783981500188 29.528229844789735 19.992956182368946 0 0 0
371 1 3.709593080446226 28.249511591614397 17.764072456814755 0 0 0
372 1 6.42516408284075 28.24951055748932 17.7640735206366 0 0 0
373 1 5.5199734016090405 26.970792399455064 15.535186015330885 0 0 0
374 1 8.235542287636923 26.97078953598786 15.535188234266464 0 0 0
375 1 7.33035240523077 25.692071876163293 13.306299915106237 0 0 0
376 1 10.045919755201812 25.69206677438802 13.306302670590997 0 0 0
377 1 9.140731140059474 24.413350264904587 11.077410643407193 0 0 0
378 1 11.85629776818277 24.413343061477537 11.07741323413746 0 0 0
379 1 10.951110597495154 23.134628314883415 8.848521720309202 0 0 0
380 1 13.666677589309597 23.134619548573855 8.848523551647977 0 0 0
381 1 12.761491730118003 21.855907084616806 6.619630164726356 0 0 0
382 1 15.47706011425889 21.85589810956001 6.619630902948829 0 0 0
383 1 14.571874527304441 20.577187502733935 4.390740665903419 0 0 0
384 1 17.287444301760946 20.577179340413764 4.3907403795147255 0 0 0
385 1 16.38225783636907 19.298469396566556 2.164156943811636 0 0 0
386 1 19.097828838511706 19.29846237407868 2.164155797037088 0 0 0
387 1 18.19264133480932 18.019750930915237 0.005244055235810627 0 0 0
388 1 20.908213312755397 18.019745054014844 0.005242321232390119 0 0 0
389 1 8.23553945914852 30.806943583712876 17.764077675106613 0 0 0
390 1 7.3303489888878 29.52822533745373 15.535189403815089 0 0 0
391 1 10.045912963995512 29.528218804044123 15.5351947088133 0 0 0
392 1 9.14072409437817 28.249501416376493 13.306304628505275 0 0 0
393 1 11.856286363658972 28.249491471672663 13.30631012571382 0 0 0
394 1 10.951099658476174 26.970775928270307 11.077415536679435 0 0 0
395 1 13.666660838084585 26.97076215304722 11.077420412184752 0 0 0
396 1 12.76147709925555 25.692049834810906 8.848525679599739 0 0 0
397 1 15.477040170912948 25.692033347151867 8.848528434730959 0 0 0
398 1 14.57185875570361 24.413325521575963 6.619631966717881 0 0 0
399 1 17.287425153863843 24.413309390963413 6.619632077410404 0 0 0
400 1 16.38224341506159 23.13460455112329 4.3907394079787005 0 0 0
401 1 19.0978132869167 23.134590462534483 4.390737393199172 0 0 0
402 1 18.192629229687537 21.855885385182805 2.164152758377779 0 0 0
403 1 20.908202394013763 21.85587346940151 2.164150229610422 0 0 0
404 1 20.003015355456224 20.57716499198793 0.00523819625407239 0 0 0
405 1 22.718590436290132 20.577154698990764 0.005236212134363321 0 0 0
406 1 13.666640529159318 30.806909601546433 13.30632350256109 0 0 0
407 1 12.761456564597923 29.528194544443544 11.077424441107244 0 0 0
408 1 15.477008745044191 29.528169343521487 11.077432404517962 0 0 0
409 1 14.571831517763144 28.249461030728572 8.848531629366155 0 0 0
410 1 17.287388747784753 28.24943237967633 8.848533393951975 0 0 0
411 1 16.382215357902545 26.970732211378415 6.619631920222554 0 0 0
412 1 19.097780719305756 26.970704881903895 6.619627232842757 0 0 0
413 1 18.192605595791925 25.692010061028878 4.390732685231137 0 0 0
414 1 20.908179928199893 25.69198949449495 4.390724710720049 0 0 0
415 1 20.002998637409316 24.41329099438062 2.164142765734992 0 0 0
416 1 22.7185793928487 24.413276709841263 2.1641363658125554 0 0 0
417 1 21.81338993972303 23.134568902664178 0.005228844108906261 0 0 0
418 1 24.52897270301009 23.134559305527276 0.005226019655446828 0 0 0
419 1 19.097716172677423 30.806809740429077 8.848534085673677 0 0 0
420 1 18.19255781446086 29.52812307500703 6.619621848216633 0 0 0
421 1 20.908125315308773 29.52808031650088 6.6196072102692245 0 0 0
422 1 20.002963953757394 28.24940457958804 4.390710329191944 0 0 0
423 1 22.718548065804377 28.249380468741293 4.390689347931978 0 0 0
424 1 21.81337457187124 26.970694304231245 2.164117418313705 0 0 0
425 1 24.528968555360816 26.97069059927739 2.1640982780783773 0 0 0
426 1 23.623772703109303 25.69197585408556 0.005209348099776124 0 0 0
427 1 26.339364478357254 25.6919857746887 0.005198859104378767 0 0 0
428 1 24.528903770876543 30.806770077002437 4.390670956453493 0 0 0
429 1 23.623760245412733 29.52812456413762 2.164070182863097 0 0 0
430 1 26.339359431580238 29.52815514882549 2.1640480563197433 0 0 0
431 1 25.434165504123065 28.249443166000248 0.005166604273701177 0 0 0
432 1 28.149752306094353 28.249512174879445 0.005141861453053763 0 0 0
433 1 0.9940227239991433 1.396429672578414 11.077408416577422 0 0 0
934 1 19.097805725093252 0.11776778659628206 4.3907030056387315 0 0 0
5314 1 21.81338089945832 30.806906898429915 22.221891743190127 0 0 0
436 1 0.9940211197100024 5.2325834796233 13.306297853377988 0 0 0
957 1 21.813381385314294 0.11771137852920077 0.005192520776737317 0 0 0