LAMMPS data file via write_data, version 2 Aug 2023, timestep = 165, units = metal

14401 atoms
3 atom types

0.08858597101078478 65.26282029568964 xlo xhi
0.1174698323453719 61.49642687600236 ylo yhi
-22.326056456097934 75.68525623167747 zlo zhi

Masses

1 183.84
2 1.008
3 4.0026

Atoms # atomic

1 1 0.9937836699781359 28.24949181068131 0.005205387243720734 0 0 0
693 1 16.38213905790792 0.11747426235726266 0.005199071553957823 0 0 0
3 1 0.9937836699644941 20.577122180231065 0.005205387242539508 0 0 0
4 1 0.9937836699669576 24.41330699545768 2.1641039035215237 0 0 0
1548 1 27.244339190536717 0.1177954736703436 8.848235358550737 0 0 0
6 1 2.804179067872071 23.13457872371668 0.005205387242211363 0 0 0
7 1 0.9937836699736476 28.249491810654547 4.390668206056449 0 0 0
673 1 13.666545534888135 0.11747382015460062 4.3906649009338965 0 0 0
9 1 2.8041790678726852 26.970763538939845 2.1641039035117413 0 0 0
10 1 1.8989813689198916 25.692035267201156 0.005205387241571473 0 0 0
11 1 4.614574465775855 25.692035267199884 0.005205387233919511 0 0 0
12 1 2.804179067417871 30.806948353949664 4.39066820583079 0 0 0
13 1 1.89898136892093 29.528220082428593 2.1641039035079777 0 0 0
14 1 4.614574465701043 29.528220082350938 2.1641039033222915 0 0 0
15 1 3.709376766824107 28.249491810684525 0.005205387231389599 0 0 0
16 1 6.424969863591608 28.249491810623713 0.005205387069261517 0 0 0
17 1 8.235365260513984 30.806948353396013 0.005205384540293885 0 0 0
18 1 0.9937836699646517 12.904752549773812 0.005205387242539557 0 0 0
19 1 0.9937836699646208 16.740937365002395 2.1641039035222396 0 0 0
5351 1 27.244394895761893 30.806626593481237 22.221847215935526 0 0 0
21 1 2.8041790678723886 15.462209093259505 0.005205387242561446 0 0 0
22 1 0.993783669963759 20.577122180230763 4.390668206085765 0 0 0
7909 1 32.675703028368794 15.462211626198878 22.221779275286533 0 0 0
24 1 2.8041790678722953 19.298393908487963 2.1641039035220646 0 0 0
25 1 1.8989813689184805 18.019665636745238 0.005205387242556016 0 0 0
26 1 4.614574465780109 18.01966563674511 0.005205387242411148 0 0 0
27 1 0.993783669946699 24.413306995451986 6.6195392889061395 0 0 0
5323 1 29.960000946074604 30.80647659116318 17.763944307953434 0 0 0
29 1 2.8041790678580454 23.134578723708145 4.3906682060789555 0 0 0
30 1 1.8989813689183048 21.855850451973737 2.164103903521971 0 0 0
31 1 4.614574465778048 21.85585045197062 2.164103903517187 0 0 0
32 1 3.7093767668261535 20.57712218023085 0.005205387242307324 0 0 0
33 1 6.424969863686556 20.57712218022942 0.00520538723866706 0 0 0
34 1 0.9937836698143918 28.24949181044615 8.848414714908518 0 0 0
672 1 10.950957005328585 0.11747066043933785 4.390667573439497 0 0 0
36 1 2.8041790675611598 26.97076353878015 6.619539288776054 0 0 0
37 1 1.8989813688998616 25.69203526718981 4.390668206075941 0 0 0
38 1 4.614574465506259 25.69203526704168 4.390668205941575 0 0 0
39 1 3.7093767668236994 24.413306995455866 2.1641039035146337 0 0 0
40 1 6.42496986364165 24.413306995397747 2.1641039034171747 0 0 0
41 1 5.519772164731225 23.134578723714355 0.005205387236384359 0 0 0
42 1 8.235365261573953 23.134578723686985 0.005205387161153325 0 0 0
43 1 2.804179063028687 30.80694835186375 8.84841471306608 0 0 0
44 1 1.8989813686033163 29.5282200821941 6.619539288711872 0 0 0
45 1 4.614574460701672 29.528220079909204 6.619539286559297 0 0 0
46 1 3.7093767664483304 28.249491810489673 4.390668205890325 0 0 0
47 1 6.424969859182908 28.249491808222864 4.390668203609802 0 0 0
48 1 5.5197721646712665 26.970763538870738 2.164103903369668 0 0 0
49 1 8.235365260636847 26.97076353793498 2.164103901666799 0 0 0
50 1 7.330167562590212 25.692035267155575 0.0052053871188973404 0 0 0
51 1 10.045760659032775 25.69203526672878 0.0052053857300021775 0 0 0
52 1 7.330167561469967 29.52822008131048 2.164103901032192 0 0 0
53 1 10.045760638599758 29.528220066302808 2.164103874365181 0 0 0
54 1 9.140562959889772 28.24949181009104 0.0052053851744418836 0 0 0
55 1 11.856156043050017 28.249491801073027 0.005205361492571173 0 0 0
56 1 13.666551157546348 30.806948174891 0.005205033138101428 0 0 0
57 1 0.9937836699621926 5.232382919319022 0.0052053872404851315 0 0 0
58 1 0.9937836699647592 9.068567734545784 2.1641039035211276 0 0 0
5261 1 29.960044121551103 30.806642964370646 13.306085710810642 0 0 0
60 1 2.804179067869248 7.789839462804564 0.005205387241807614 0 0 0
61 1 0.9937836699659603 12.90475254977468 4.390668206085334 0 0 0
7538 1 32.675697685177006 23.134504328458867 17.763967778048833 0 0 0
63 1 2.8041790678722505 11.626024278031062 2.164103903522152 0 0 0
64 1 1.8989813689186275 10.347296006288019 0.005205387242435816 0 0 0
65 1 4.614574465777087 10.347296006290247 0.005205387242047699 0 0 0
66 1 0.9937836699648873 16.74093736500256 6.61953928891102 0 0 0
658 1 8.235365004808727 0.11746998490986726 8.84841466415682 0 0 0
68 1 2.8041790678722864 15.46220909325939 4.390668206085858 0 0 0
69 1 1.8989813689185262 14.183480821516671 2.1641039035222502 0 0 0
70 1 4.6145744657798415 14.183480821516765 2.164103903522122 0 0 0
71 1 3.709376766826282 12.904752549773736 0.0052053872424742045 0 0 0
72 1 6.42496986368514 12.90475254977554 0.0052053872426519945 0 0 0
73 1 0.9937836699573185 20.577122180226663 8.84841471504892 0 0 0
1533 1 24.52864953116829 0.11781047053952116 13.306091457233888 0 0 0
75 1 2.804179067866224 19.298393908483575 6.619539288908562 0 0 0
76 1 1.8989813689181712 18.019665636744996 4.390668206085776 0 0 0
77 1 4.614574465775568 18.019665636741554 4.390668206083505 0 0 0
78 1 3.7093767668262005 16.740937365002264 2.1641039035221463 0 0 0
79 1 6.42496986368643 16.740937365001272 2.164103903520835 0 0 0
80 1 5.519772164733955 15.462209093259249 0.00520538724242236 0 0 0
81 1 8.235365261591763 15.462209093266845 0.005205387241830864 0 0 0
82 1 0.9937836697921977 24.41330699538893 11.077294257760936 0 0 0
5141 1 21.813226086036927 30.806793787619018 13.306136718634392 0 0 0
84 1 2.8041790677169947 23.134578723620034 8.84841471499159 0 0 0
85 1 1.8989813689075083 21.8558504519674 6.619539288906879 0 0 0
86 1 4.614574465643319 21.855850451879565 6.619539288847887 0 0 0
87 1 3.7093767668177224 20.57712218022491 4.390668206081489 0 0 0
88 1 6.424969863586115 20.577122180152987 4.39066820602852 0 0 0
89 1 5.519772164732409 19.298393908485767 2.1641039035193086 0 0 0
90 1 8.235365261568466 19.298393908455978 2.1641039034852487 0 0 0
91 1 7.330167562640711 18.019665636745344 0.005205387240311155 0 0 0
92 1 10.045760659500411 18.01966563673032 0.005205387221529667 0 0 0
93 1 0.9937836677513238 28.249491809403246 13.30617963609698 0 0 0
5012 1 29.960093677288686 30.806859826788685 4.390602119089302 0 0 0
95 1 2.80417906498861 26.970763537430056 11.077294256864654 0 0 0
96 1 1.8989813686803807 25.692035267083853 8.848414714968598 0 0 0
97 1 4.614574462860853 25.692035265488656 8.848414713866577 0 0 0
98 1 3.7093767666087176 24.41330699532817 6.619539288813239 0 0 0
99 1 6.424969861104044 24.413306993782328 6.619539287662355 0 0 0
100 1 5.519772164557044 23.134578723598384 4.390668205989593 0 0 0
101 1 8.235365259651799 23.134578722305474 4.390668204946398 0 0 0
102 1 7.330167562605866 21.85585045192637 2.164103903456273 0 0 0
103 1 10.045760658869321 21.855850451321164 2.16410390275609 0 0 0
104 1 9.140562960539613 20.577122180214868 0.005205387194096437 0 0 0
105 1 11.85615605705025 20.5771221799637 0.005205386669488076 0 0 0
8101 1 32.675476287068896 0.11886564932461685 17.764013608149313 0 0 0
107 1 1.8989813654179422 29.528220080603603 11.077294256579824 0 0 0
108 1 4.614574420305075 29.52822005964492 11.077294242338368 0 0 0
109 1 3.709376762808706 28.249491808633 8.848414713449577 0 0 0
110 1 6.424969817343352 28.249491785007972 8.848414695570472 0 0 0
111 1 5.519772160913593 26.970763536780925 6.6195392871026675 0 0 0
112 1 8.235365220506168 26.970763513622497 6.6195392683479595 0 0 0
113 1 7.330167559503071 25.69203526523798 4.390668204309304 0 0 0
114 1 10.045760628587564 25.69203524568482 4.390668187277055 0 0 0
115 1 9.140562959730252 24.413306994589917 2.164103902247364 0 0 0
116 1 11.856156045040267 24.413306984018288 2.1641038902861327 0 0 0
117 1 10.950958358048963 23.134578723378652 0.005205386249992664 0 0 0
118 1 13.666551447205213 23.134578716801446 0.005205376478654457 0 0 0
119 1 7.330167504885869 29.528220051848248 6.619539260541251 0 0 0
120 1 10.045760151902254 29.52821978073313 6.619539027700237 0 0 0
121 1 9.140562913011923 28.249491782674696 4.390668178141013 0 0 0
122 1 11.856155680145681 28.249491554467763 4.390667967879947 0 0 0
123 1 10.950958341153981 26.970763524166873 2.164103882289688 0 0 0
124 1 13.666551281836206 26.97076338513716 2.164103730686052 0 0 0
125 1 12.761353744559878 25.692035259056823 0.00520536956773601 0 0 0
126 1 15.476946735278924 25.69203515907936 0.005205241754842113 0 0 0
127 1 10.950957790173636 30.806948032439163 4.39066786013032 0 0 0
128 1 13.666548318734952 30.80694625875408 4.390666147067663 0 0 0
129 1 12.761353488449354 29.528219880076595 2.164103628511313 0 0 0
130 1 15.476945277401262 29.528218695896683 2.164102359361409 0 0 0
131 1 14.571748947876932 28.249491668216578 0.005205146043528815 0 0 0
132 1 17.287341130553106 28.24949073282444 0.005204034107770936 0 0 0
133 1 16.382142438020228 30.806946854892463 0.005203156542313755 0 0 0
134 1 0.9937836700077729 1.3961981040730485 2.16410390350706 0 0 0
1520 1 16.38207050003474 0.11752468578853083 17.763971208090766 0 0 0
1513 1 13.666528019578251 0.11748531055946893 22.22178351895995 0 0 0
137 1 0.9937836700152866 5.2323829193523 4.390668206054163 0 0 0
7425 1 32.67565159335668 30.8063738797815 17.76393866749968 0 0 0
139 1 2.8041790678971306 3.9536546475574847 2.164103903535787 0 0 0
140 1 1.8989813689164763 2.674926375831927 0.0052053872560953686 0 0 0
141 1 4.614574466137855 2.6749263755998065 0.005205387331872723 0 0 0
142 1 0.993783669999024 9.06856773456453 6.619539288897736 0 0 0
1381 1 24.528756133489715 0.11769839553414371 8.848286118857773 0 0 0
144 1 2.8041790678667065 7.789839462810037 4.390668206081866 0 0 0
145 1 1.8989813689135187 6.511111191063325 2.1641039035198752 0 0 0
146 1 4.614574465798253 6.5111111910469575 2.164103903535314 0 0 0
147 1 3.7093767668167175 5.232382919323654 0.005205387255965454 0 0 0
148 1 6.424969864070815 5.232382919056096 0.005205387357969197 0 0 0
149 1 0.9937836699784461 12.90475254978345 8.848414715046468 0 0 0
7409 1 32.67568379553127 26.970562706095862 15.53504104894788 0 0 0
151 1 2.804179067874647 11.6260242780312 6.619539288911099 0 0 0
152 1 1.8989813689207131 10.347296006289284 4.390668206085081 0 0 0
153 1 4.614574465772364 10.347296006294428 4.390668206083275 0 0 0
154 1 3.7093767668213955 9.068567734548925 2.1641039035212954 0 0 0
155 1 6.424969863712508 9.0685677345284 2.1641039035366174 0 0 0
156 1 5.519772164725908 7.789839462811304 0.005205387255994985 0 0 0
157 1 8.235365261941457 7.789839462551801 0.005205387329289478 0 0 0
158 1 0.9937836699665649 16.74093736500388 11.077294257801737 0 0 0
1380 1 21.813207649128394 0.11760201343071212 8.848338122160325 0 0 0
160 1 2.804179067870954 15.462209093258275 8.848414715050579 0 0 0
161 1 1.8989813689193227 14.183480821517184 6.619539288910926 0 0 0
162 1 4.614574465779158 14.183480821514962 6.619539288910924 0 0 0
163 1 3.7093767668262116 12.904752549773796 4.390668206085966 0 0 0
164 1 6.424969863681247 12.90475254977877 4.390668206083293 0 0 0
165 1 5.519772164730116 11.62602427803427 2.1641039035217364 0 0 0
166 1 8.235365261630918 11.626024278005566 2.1641039035369216 0 0 0
167 1 7.330167562643139 10.347296006294114 0.005205387257094924 0 0 0
168 1 10.045760659798416 10.347296006057435 0.005205387256237945 0 0 0
169 1 0.9937836699118904 20.577122180194458 13.306179636701966 0 0 0
1364 1 16.38207999487223 0.11751803527588316 13.306165787925243 0 0 0
171 1 2.804179067815344 19.298393908446265 11.077294257785397 0 0 0
172 1 1.8989813689148363 18.019665636742435 8.84841471504994 0 0 0
173 1 4.614574465730401 18.019665636704797 8.848414715031568 0 0 0
174 1 3.7093767668231274 16.740937364999724 6.619539288909878 0 0 0
175 1 6.424969863652029 16.740937364969795 6.619539288893771 0 0 0
176 1 5.519772164731614 15.462209093257897 4.390668206084787 0 0 0
177 1 8.235365261573959 15.462209093239748 4.390668206071695 0 0 0
178 1 7.330167562639073 14.183480821518662 2.1641039035225065 0 0 0
179 1 10.045760659538942 14.183480821463652 2.164103903509814 0 0 0
180 1 9.14056296056045 12.904752549788752 0.005205387251784278 0 0 0
181 1 11.856156057688565 12.904752549214054 0.005205387251546526 0 0 0
182 1 0.9937836690248075 24.413306994960415 15.535071304880457 0 0 0
1352 1 10.950952296849469 0.11747348537744326 17.763968891080978 0 0 0
184 1 2.8041790667124507 23.134578722976006 13.306179636425938 0 0 0
185 1 1.8989813688199002 21.855850451909763 11.077294257772264 0 0 0
186 1 4.614574464568747 21.85585045112438 11.077294257400087 0 0 0
187 1 3.7093767667320474 20.577122180164054 8.848414715014444 0 0 0
188 1 6.424969862633944 20.577122179407528 8.848414714610291 0 0 0
189 1 5.519772164657991 19.29839390842816 6.6195392888751465 0 0 0
190 1 8.235365260833534 19.298393907814397 6.6195392885214215 0 0 0
191 1 7.33016756259126 18.01966563670069 4.390668206056285 0 0 0
192 1 10.04576065906891 18.019665636299578 4.390668205802951 0 0 0
193 1 9.140562960533511 16.74093736498367 2.164103903503162 0 0 0
194 1 11.856156057265068 16.740937364659732 2.1641039033789315 0 0 0
195 1 10.950958358506579 15.462209093153268 0.005205387244753241 0 0 0
196 1 13.66655145494771 15.462209093787518 0.005205386942801492 0 0 0
197 1 0.9937836597012829 28.24949180534316 17.763968791246402 0 0 0
7381 1 32.67570302610939 19.29839046261577 11.077293083862587 0 0 0
199 1 2.8041790521941983 26.970763530304154 15.53507130249994 0 0 0
200 1 1.8989813671109512 25.692035266233944 13.30617963627347 0 0 0
201 1 4.614574445862 25.692035255053607 13.306179631597182 0 0 0
202 1 3.7093767648382956 24.413306994244927 11.077294257144667 0 0 0
203 1 6.424969842868083 24.413306981402364 11.077294250643712 0 0 0
204 1 5.519772162847293 23.13457872244475 8.848414714275322 0 0 0
205 1 8.235365243502942 23.1345787100036 8.8484147072068 0 0 0
206 1 7.330167561109645 21.855850450820757 6.61953928815243 0 0 0
207 1 10.04576064648794 21.85585044068791 6.619539281976563 0 0 0
208 1 9.140562959523415 20.577122179358216 4.390668205460372 0 0 0
209 1 11.85615605007139 20.577122172519424 4.390668201077089 0 0 0
210 1 10.95095835805753 19.298393908044655 2.1641039031318994 0 0 0
211 1 13.666551452469752 19.298393904333494 2.164103900612654 0 0 0
212 1 12.761353756097138 18.019665636467682 0.005205386856570535 0 0 0
213 1 15.476946853416777 18.019665636857127 0.005205387164298834 0 0 0
214 1 2.8041789425821344 30.80694829538735 17.76396879151121 0 0 0
215 1 1.898981347615336 29.528220072001684 15.535071301348843 0 0 0
216 1 4.6145742635682065 29.528219976308097 15.535071274729496 0 0 0
217 1 3.7093767375482702 28.249491795277113 13.306179629123363 0 0 0
218 1 6.424969606312496 28.249491660124832 13.306179570400502 0 0 0
219 1 5.519772131827931 26.970763519821418 11.077294246552396 0 0 0
220 1 8.235364990488163 26.970763361429157 11.077294163110343 0 0 0
221 1 7.33016753140309 25.692035247049876 8.848414701761898 0 0 0
222 1 10.045760424250021 25.692035092365906 8.8484146101605 0 0 0
223 1 9.140562935194524 24.41330697704104 6.619539275891522 0 0 0
224 1 11.856155890078815 24.413306851185833 6.619539195837207 0 0 0
225 1 10.950958341550326 23.13457870966147 4.39066819537322 0 0 0
226 1 13.66655136254747 23.134578624792276 4.390668139083732 0 0 0
227 1 12.76135374913951 21.855850444079774 2.164103896458762 0 0 0
228 1 15.47694682086883 21.85585040268485 2.1641038677442115 0 0 0
229 1 14.571749150656641 20.577122175105686 0.005205381600495739 0 0 0
230 1 17.287342250660032 20.577122177723503 0.00520538218914661 0 0 0
231 1 8.235362953105488 30.806947060686078 13.30617905361455 0 0 0
232 1 7.330167147346351 29.528219851619756 11.077294114501592 0 0 0
233 1 10.045758221488516 29.528218528063476 11.077293401755373 0 0 0
234 1 9.140562564271766 28.249491563367993 8.848414542884504 0 0 0
235 1 11.856153939274945 28.249490256164307 8.84841374816176 0 0 0
236 1 10.950958038977559 26.97076331178043 6.619539119156601 0 0 0
237 1 13.666549952617494 26.970762237698782 6.619538413725133 0 0 0
238 1 12.761353546546431 25.692035093814738 4.390668067268632 0 0 0
239 1 15.476946022874996 25.692034364411402 4.3906675689466645 0 0 0
240 1 14.571749061777236 24.413306891530567 2.1641038103805195 0 0 0
241 1 17.28734196968087 24.41330656263832 2.164103568319778 0 0 0
242 1 16.382144509854154 23.134578663894363 0.005205320806622849 0 0 0
243 1 19.097737614678003 23.134578638832767 0.005205291663076308 0 0 0
244 1 10.950954923184455 30.80694626960216 8.848413201012361 0 0 0
245 1 13.666539202471958 30.80693947266361 8.848408985002383 0 0 0
246 1 12.761350994727616 29.5282181454867 6.6195377696137445 0 0 0
247 1 15.476938004114999 29.52821236091399 6.619533865732456 0 0 0
248 1 14.57174735045845 28.249490312443637 4.390666952920155 0 0 0
249 1 17.287337211954597 28.249486249389875 4.390664082614912 0 0 0
250 1 16.382143739662386 26.9707626000828 2.1641030448806524 0 0 0
251 1 19.097735834332784 26.970760739718664 2.164101578688945 0 0 0
252 1 18.192539572114523 25.692034732799176 0.005204795010431679 0 0 0
253 1 20.908132570052285 25.692034216072198 0.005204348203911745 0 0 0
1186 1 24.528852675267355 0.11757239135609482 4.390576191036266 0 0 0
255 1 18.19253523473387 29.52821451471051 2.164098576886468 0 0 0
256 1 20.908124793830154 29.52820736375006 2.164092352422731 0 0 0
257 1 20.002932816590043 28.24948821373211 0.0052014425150942786 0 0 0
258 1 22.718525017692215 28.249484484775557 0.005198397853091112 0 0 0
1185 1 21.813274887775435 0.1175329323434529 4.390611770859437 0 0 0
260 1 0.9937836709525874 1.396198104518913 6.619539288466392 0 0 0
1138 1 8.235365015392606 0.11746998759478165 17.763968791896296 0 0 0
7370 1 32.675703130436204 15.462209294154018 8.848414592267552 0 0 0
263 1 0.9937836705720627 5.232382919640908 8.848414714823733 0 0 0
933 1 16.382127945052414 0.1174826124431524 4.390657042938796 0 0 0
265 1 2.804179067857383 3.9536546476390786 6.6195392888464335 0 0 0
266 1 1.898981369017088 2.674926375845235 4.390668206049421 0 0 0
267 1 4.614574466994962 2.674926375138499 4.390668206426269 0 0 0
268 1 3.7093767674074725 1.3961981037579845 2.1641039035945684 0 0 0
269 1 6.424969861799052 1.3961981055106383 2.16410390041965 0 0 0
5352 1 29.960017764224435 30.806557500646733 22.221860933616526 0 0 0
5322 1 27.244378182768298 30.806570541308044 17.763951845123103 0 0 0
272 1 0.9937836702575724 9.068567734716128 11.077294257717076 0 0 0
5315 1 24.528792465208316 30.806704343482714 22.221835148734524 0 0 0
274 1 2.8041790678960434 7.789839462827213 8.848414715039382 0 0 0
275 1 1.898981368953175 6.511111191092721 6.6195392888888245 0 0 0
276 1 4.61457446569442 6.511111191122267 6.61953928886323 0 0 0
277 1 3.709376766832367 5.23238291931437 4.390668206074015 0 0 0
278 1 6.424969864886165 5.232382918492503 4.390668206433073 0 0 0
279 1 5.519772165429641 3.9536546471265073 2.1641039036645204 0 0 0
280 1 8.235365260381084 3.953654648501858 2.164103900701488 0 0 0
281 1 7.3301675638524 2.6749263748919487 0.005205384885545851 0 0 0
282 1 10.045760628496836 2.6749263939719183 0.005205342481109248 0 0 0
283 1 0.9937836700589632 12.904752549839925 13.306179636694026 0 0 0
914 1 13.666536702613229 0.11747971376194996 8.848409338568327 0 0 0
285 1 2.804179067888612 11.626024278036889 11.077294257800174 0 0 0
286 1 1.8989813689434463 10.347296006300459 8.848414715044107 0 0 0
287 1 4.6145744657713035 10.347296006295888 8.84841471505007 0 0 0
288 1 3.7093767668166517 9.06856773455503 6.619539288907472 0 0 0
289 1 6.424969863623572 9.068567734603445 6.619539288869435 0 0 0
290 1 5.519772164738758 7.789839462801952 4.390668206075425 0 0 0
291 1 8.235365262655845 7.789839461945401 4.390668206414012 0 0 0
292 1 7.330167563298801 6.511111190563891 2.1641039036617475 0 0 0
293 1 10.045760657652005 6.511111192311683 2.164103900585077 0 0 0
294 1 9.140562961605287 5.232382918126347 0.005205384922241669 0 0 0
295 1 11.856156028261866 5.232382936252554 0.005205346047432402 0 0 0
296 1 0.9937836699720377 16.74093736500848 15.535071305023138 0 0 0
913 1 10.950955153416386 0.1174717906342148 8.84841379217051 0 0 0
298 1 2.8041790678624783 15.462209093250841 13.306179636711054 0 0 0
299 1 1.8989813689253308 14.183480821521616 11.077294257800967 0 0 0
300 1 4.614574465771273 14.183480821503744 11.077294257800128 0 0 0
301 1 3.709376766828101 12.90475254977219 8.848414715051435 0 0 0
302 1 6.42496986366859 12.904752549774983 8.848414715046259 0 0 0
303 1 5.51977216472244 11.626024278039655 6.6195392889078635 0 0 0
304 1 8.235365261580252 11.626024278048504 6.61953928888381 0 0 0
305 1 7.330167562666184 10.347296006272808 4.390668206082269 0 0 0
306 1 10.045760660256423 10.347296005569186 4.390668206327729 0 0 0
307 1 9.140562961062837 9.068567734103741 2.164103903597265 0 0 0
308 1 11.856156054478397 9.068567736408554 2.1641039007039446 0 0 0
309 1 10.950958358690942 7.789839461688834 0.005205384841623363 0 0 0
310 1 13.666551428090248 7.789839480504907 0.0052053534556340915 0 0 0
311 1 0.9937836697602053 20.57712218008788 17.763968791220453 0 0 0
7361 1 32.67570305849452 11.626028141562697 6.619537271364422 0 0 0
313 1 2.8041790675809164 19.298393908267837 15.535071304984372 0 0 0
314 1 1.8989813688909254 18.019665636724394 13.306179636707773 0 0 0
315 1 4.614574465459735 18.01966563647664 13.306179636636262 0 0 0
316 1 3.7093767667981146 16.740937364978908 11.077294257794392 0 0 0
317 1 6.424969863417184 16.7409373647433 11.077294257710463 0 0 0
318 1 5.519772164713081 15.462209093237842 8.848414715042878 0 0 0
319 1 8.235365261408027 15.46220909307621 8.84841471496833 0 0 0
320 1 7.33016756261949 14.183480821511298 6.6195392889006825 0 0 0
321 1 10.045760659458358 14.183480821377142 6.619539288863386 0 0 0
322 1 9.140562960590838 12.90475254972256 4.390668206084785 0 0 0
323 1 11.856156057731173 12.90475254941996 4.390668206244265 0 0 0
324 1 10.950958358754068 11.62602427767196 2.1641039034812573 0 0 0
325 1 13.666551451350186 11.626024281199165 2.164103901478343 0 0 0
326 1 12.761353755476376 10.347296005211748 0.005205385039759461 0 0 0
327 1 15.476946830027266 10.347296034030096 0.005205360483438281 0 0 0
328 1 0.9937836690467171 24.413306994982115 19.99287152731771 0 0 0
899 1 8.23536499502612 0.11746999484315065 13.306179619481147 0 0 0
330 1 2.804179063991542 23.13457872113688 17.763968791228276 0 0 0
331 1 1.8989813683681551 21.85585045160613 15.535071304941718 0 0 0
332 1 4.614574460290116 21.85585044795009 15.535071304212975 0 0 0
333 1 3.709376766165446 20.577122179749054 13.306179636552123 0 0 0
334 1 6.424969857721285 20.57712217534349 13.306179635195688 0 0 0
335 1 5.519772164102241 19.298393907976113 11.077294257591062 0 0 0
336 1 8.23536525654897 19.298393903782454 11.077294255999968 0 0 0
337 1 7.330167562153395 18.019665636297074 8.848414714841436 0 0 0
338 1 10.045760656245807 18.019665633150918 8.848414713496409 0 0 0
339 1 9.140562960248024 16.740937364687195 6.6195392887477835 0 0 0
340 1 11.856156056050223 16.740937362938812 6.619539287980955 0 0 0
341 1 10.950958358366078 15.462209093056753 4.390668205996522 0 0 0
342 1 13.66655145535199 15.462209092389106 4.390668206222172 0 0 0
343 1 12.761353756370003 14.183480821268475 2.164103903622891 0 0 0
344 1 15.476946848772743 14.183480828196622 2.1641038999155993 0 0 0
345 1 14.571749151033492 12.904752553776923 0.005205384148295606 0 0 0
346 1 17.287342249601352 12.904752552081126 0.0052053825498198205 0 0 0
347 1 0.9937836680696578 28.249491809535176 22.221778339902155 0 0 0
694 1 19.097725264232277 0.11748263560231448 0.005188594539678435 0 0 0
349 1 2.8041790522542986 26.97076353044339 19.99287152979044 0 0 0
350 1 1.8989813621090037 25.692035263311183 17.763968791238096 0 0 0
351 1 4.614574412010682 25.69203523288654 17.763968791273093 0 0 0
352 1 3.7093767568799336 24.413306989118023 15.535071303494735 0 0 0
353 1 6.424969786088158 24.413306940200453 15.535071293862854 0 0 0
354 1 5.51977215293757 23.134578715396344 13.306179633710387 0 0 0
355 1 8.235365177868747 23.134578656382956 13.306179615024844 0 0 0
356 1 7.330167551375515 21.855850443081938 11.077294253880602 0 0 0
357 1 10.045760588892163 21.85585038662699 11.077294231747665 0 0 0
358 1 9.140562951872694 20.57712217241262 8.84841471116792 0 0 0
359 1 11.856156012166418 20.57712212973316 8.84841469235112 0 0 0
360 1 10.950958353223784 19.2983939028427 6.619539285907945 0 0 0
361 1 13.666551436111316 19.298393880108964 6.619539275510684 0 0 0
362 1 12.76135375428182 18.019665633467067 4.390668204447955 0 0 0
363 1 15.47694685017171 18.01966563195394 4.390668202791107 0 0 0
364 1 14.571749153739468 16.74093736546246 2.164103903002392 0 0 0
365 1 17.287342251351713 16.740937364582816 2.1641039032118994 0 0 0
366 1 16.382144552381757 15.462209092881597 0.005205387124411409 0 0 0
367 1 19.097737649275913 15.462209092263585 0.005205387361933656 0 0 0
368 1 2.8041790336761876 30.806948338811587 22.22177834924963 0 0 0
369 1 1.8989813479221676 29.52822007228465 19.992871530991714 0 0 0
370 1 4.614574261466649 29.52821997653134 19.992871558695246 0 0 0
371 1 3.7093766794170415 28.249491762714502 17.76396879136054 0 0 0
372 1 6.424969323414496 28.249491480603325 17.763968791033204 0 0 0
373 1 5.51977203050982 26.97076345677186 15.535071285409579 0 0 0
374 1 8.235364478495 26.970762996439497 15.53507119884435 0 0 0
375 1 7.3301674040763425 25.69203515858598 13.306179595953642 0 0 0
376 1 10.045759824986073 25.69203460521402 13.306179420250904 0 0 0
377 1 9.140562808955542 24.41330687802256 11.07729420379507 0 0 0
378 1 11.856155354311957 24.41330634450017 11.077293991320998 0 0 0
379 1 10.950958242377041 23.134578619786485 8.848414661141586 0 0 0
380 1 13.666551001619156 23.134578211259335 8.848414476617755 0 0 0
381 1 12.761353687248175 21.855850376365304 6.619539246971778 0 0 0
382 1 15.476946654308275 21.855850161951874 6.6195391435574304 0 0 0
383 1 14.571749126853017 20.577122140086775 4.390668183362321 0 0 0
384 1 17.287342210979546 20.577122092706393 4.390668159444328 0 0 0
385 1 16.382144549959005 19.29839390195703 2.164103899338237 0 0 0
386 1 19.097737646801523 19.298393899362026 2.1641038974599116 0 0 0
387 1 18.192539950122384 18.01966563735556 0.005205387027735017 0 0 0
388 1 20.908133047048583 18.01966563812271 0.005205387220798441 0 0 0
389 1 8.235361407426721 30.806946117183394 17.763968786629164 0 0 0
390 1 7.330166282979348 29.528219331600337 15.535071132998354 0 0 0
391 1 10.045755258298513 29.528216449043505 15.535070618738532 0 0 0
392 1 9.14056146477542 28.249490813114367 13.306179256105427 0 0 0
393 1 11.856150425585968 28.249487399211606 13.30617818889284 0 0 0
394 1 10.95095693059456 26.97076244647996 11.077293741540966 0 0 0
395 1 13.666546705868004 26.970759122098162 11.0772924101091 0 0 0
396 1 12.761352661946665 25.69203428476167 8.848414188348025 0 0 0
397 1 15.476943701841117 25.692031669043644 8.84841298467012 0 0 0
398 1 14.571748501125578 24.413306269837072 6.619538869647919 0 0 0
399 1 17.28734075755739 24.4133048232914 6.619538144327974 0 0 0
400 1 16.38214429037849 23.134578340742507 4.390667976901528 0 0 0
401 1 19.097737220117303 23.13457785453878 4.390667709160355 0 0 0
402 1 18.192539909078604 21.85585035503495 2.164103836591817 0 0 0
403 1 20.908133002443087 21.85585029581287 2.1641037960985505 0 0 0
404 1 20.002935348017147 20.577122182781014 0.005205380233740553 0 0 0
405 1 22.71852844685546 20.57712219384506 0.005205382210225189 0 0 0
406 1 13.666526072472497 30.80692887932244 13.306173147456077 0 0 0
407 1 12.761344911388978 29.528213389227048 11.077291018751229 0 0 0
408 1 15.476925424597113 29.5282001792609 11.077285628471648 0 0 0
409 1 14.571742281939954 28.249485599345086 8.848411280937325 0 0 0
410 1 17.287327391890273 28.249474791376585 8.848406163075865 0 0 0
411 1 16.38214032291128 26.97075877605202 6.619536418891124 0 0 0
412 1 19.097729793414782 26.97075212454421 6.619532927484667 0 0 0
413 1 18.19253812586357 25.692032611961988 4.390666513594043 0 0 0
414 1 20.908130161010043 25.692029646562776 4.390664771080365 0 0 0
415 1 20.002934914270583 24.41330606201256 2.1641032188170124 0 0 0
416 1 22.718527950979553 24.413305427481927 2.16410277873304 0 0 0
417 1 21.813330715903163 23.134578631243343 0.005205244999413726 0 0 0
418 1 24.52892382121926 23.134578654480634 0.005205211449919698 0 0 0
419 1 19.097689329008762 30.806893648331542 8.84838514370735 0 0 0
420 1 18.192521580604463 29.528199316712136 6.619526069438127 0 0 0
421 1 20.908104880162593 29.528179055628176 6.6195148014778145 0 0 0
422 1 20.002926470679693 28.249478929516503 4.390659376291883 0 0 0
423 1 22.71851636744467 28.249468448549607 4.390652835768077 0 0 0
424 1 21.813327956006702 26.970757813809275 2.1640994079578193 0 0 0
425 1 24.528920859264797 26.970754496954022 2.1640970132839836 0 0 0
426 1 23.623725645471886 25.69203366609887 0.005203787754171554 0 0 0
427 1 26.339318719096173 25.69203305381081 0.005203156789577229 0 0 0
1632 1 16.382086833967513 0.11751264110244089 22.221794859752226 0 0 0
429 1 23.623715252869133 29.528197826117363 2.1640846729948833 0 0 0
430 1 26.339309320627873 29.528189460448104 2.1640780493665766 0 0 0
431 1 25.43411815704484 28.249480519157604 0.0051952154135462255 0 0 0
432 1 28.1497115436505 28.2494763745774 0.005191698391360443 0 0 0
433 1 0.9937836780659846 1.3961981078333225 11.077294255112298 0 0 0
1641 1 24.528608950057762 0.11783491554129538 17.763993346168814 0 0 0
5314 1 21.813212683448842 30.806782438774167 22.22182097638042 0 0 0
436 1 0.9937836743075719 5.232382921533882 13.306179635718616 0 0 0
1652 1 27.244164498162036 0.11809304211819317 13.306031826504476 0 0 0