ITEM: TIMESTEP
2212
ITEM: NUMBER OF ATOMS
14401
ITEM: BOX BOUNDS pp pp pp
8.8838053788993149e-02 6.5262568212911333e+01
1.1770677803534026e-01 6.1496189930312362e+01
-2.2326802094149301e+01 7.5686001869728841e+01
ITEM: ATOMS id x y z
1 0.99403 28.2495 0.00514283
1548 27.2445 0.117822 8.84921
3 0.994032 20.5772 0.0051304
4 0.994027 24.4133 2.16405
1533 24.5289 0.117888 13.3068
6 2.80441 23.1346 0.00513397
7 0.994022 28.2495 4.39063
1532 21.8133 0.11786 13.3067
9 2.80441 26.9708 2.16405
10 1.89922 25.6921 0.00513783
11 4.61479 25.6921 0.00514214
12 2.8044 30.8069 4.39064
13 1.89922 29.5282 2.16405
14 4.61479 29.5282 2.16406
15 3.70961 28.2495 0.00514674
16 6.42519 28.2495 0.00516026
5 0.0888402 23.1346 0.00513368
18 0.994049 12.9049 0.00512887
19 0.99404 16.741 2.16404
5351 27.2445 30.8067 22.2222
21 2.80442 15.4623 0.00512802
22 0.99403 20.5772 4.39063
7909 32.6757 15.4623 22.222
24 2.80441 19.2985 2.16404
25 1.89923 18.0198 0.00512843
26 4.61479 18.0198 0.00512956
27 0.994021 24.4133 6.61953
5323 29.9601 30.8067 17.7646
29 2.8044 23.1346 4.39063
30 1.89922 21.8559 2.16404
31 4.61478 21.8559 2.16405
32 3.7096 20.5772 0.00513111
33 6.42517 20.5772 0.00513453
34 0.994016 28.2495 8.84843
1521 19.0977 0.117853 17.7643
36 2.80439 26.9708 6.61953
37 1.89921 25.6921 4.39063
38 4.61477 25.6921 4.39064
39 3.70959 24.4133 2.16405
40 6.42516 24.4133 2.16405
41 5.51998 23.1346 0.0051378
42 8.23555 23.1346 0.0051469
43 2.80438 30.8069 8.84843
44 1.8992 29.5282 6.61953
45 4.61476 29.5282 6.61954
46 3.70959 28.2495 4.39064
47 6.42515 28.2495 4.39065
48 5.51998 26.9708 2.16406
49 8.23555 26.9708 2.16408
50 7.33037 25.6921 0.00515353
51 10.046 25.6921 0.00517471
52 7.33037 29.5282 2.16408
53 10.0459 29.5282 2.16412
54 9.14078 28.2495 0.00518671
55 11.8564 28.2495 0.00523021
1520 16.3821 0.117827 17.7642
57 0.994065 5.23258 0.00513855
58 0.994061 9.06874 2.16404
5261 29.9601 30.8067 13.3069
60 2.80444 7.79002 0.00513359
61 0.994052 12.9049 4.39063
5157 27.2445 30.8067 8.84917
63 2.80443 11.6262 2.16404
64 1.89924 10.3475 0.00513066
65 4.61481 10.3474 0.00513145
66 0.99404 16.741 6.61952
11971 32.6757 30.8067 22.2223
68 2.80442 15.4623 4.39063
69 1.89924 14.1836 2.16404
70 4.6148 14.1836 2.16404
71 3.70962 12.9049 0.00512894
72 6.42518 12.9049 0.00513085
73 0.994028 20.5772 8.84842
28 0.0888382 23.1346 4.39063
75 2.8044 19.2985 6.61952
76 1.89922 18.0198 4.39063
77 4.61478 18.0198 4.39063
78 3.7096 16.741 2.16404
79 6.42517 16.741 2.16404
80 5.51998 15.4623 0.00512944
81 8.23555 15.4623 0.00513237
82 0.994019 24.4133 11.0773
5141 21.8132 30.8067 13.3067
84 2.80439 23.1346 8.84842
85 1.89921 21.8559 6.61952
86 4.61477 21.8559 6.61953
87 3.70959 20.5772 4.39063
88 6.42515 20.5772 4.39063
89 5.51997 19.2985 2.16404
90 8.23554 19.2985 2.16405
91 7.33036 18.0198 0.00513265
92 10.0459 18.0198 0.00513811
93 0.994014 28.2495 13.3062
5012 29.9601 30.8069 4.39154
95 2.80438 26.9707 11.0773
96 1.8992 25.692 8.84843
97 4.61475 25.692 8.84843
98 3.70958 24.4133 6.61953
99 6.42513 24.4133 6.61953
100 5.51996 23.1346 4.39063
101 8.23552 23.1346 4.39064
102 7.33035 21.8559 2.16405
103 10.0459 21.8559 2.16406
104 9.14074 20.5772 0.0051416
105 11.8563 20.5772 0.00515294
1381 24.529 0.117796 8.84906
107 1.89919 29.5282 11.0773
108 4.61474 29.5282 11.0773
109 3.70956 28.2495 8.84843
110 6.42511 28.2495 8.84845
111 5.51995 26.9708 6.61954
112 8.2355 26.9708 6.61955
113 7.33034 25.6921 4.39065
114 10.0459 25.6921 4.39067
115 9.14073 24.4133 2.16407
116 11.8563 24.4134 2.16409
117 10.9511 23.1346 0.0051629
118 13.6667 23.1347 0.00518693
119 7.33032 29.5282 6.61956
120 10.0459 29.5282 6.6196
121 9.14072 28.2495 4.39068
122 11.8563 28.2495 4.39072
123 10.9511 26.9708 2.16411
124 13.6667 26.9708 2.16415
125 12.7615 25.6921 0.00520802
126 15.4771 25.6921 0.00525463
127 10.9511 30.8069 4.39074
128 13.6667 30.8069 4.39081
129 12.7615 29.5282 2.16418
130 15.4771 29.5282 2.16426
131 14.572 28.2496 0.00529357
132 17.2875 28.2496 0.00537527
1165 16.3822 0.117753 8.84866
134 0.994078 1.39643 2.16405
1149 10.9511 0.117776 13.3063
7425 32.6757 30.8067 17.7646
137 0.994076 5.2326 4.39063
649 2.80445 0.117761 13.3062
139 2.80446 3.95387 2.16405
140 1.89926 2.67514 0.00514297
141 4.61485 2.67513 0.00514573
142 0.994067 9.06876 6.61952
7224 32.6757 30.8069 4.39157
144 2.80445 7.79003 4.39063
145 1.89926 6.5113 2.16405
146 4.61483 6.5113 2.16405
147 3.70965 5.23258 0.00513834
148 6.42523 5.23256 0.00514397
149 0.994053 12.9049 8.84842
7217 32.6757 23.1348 0.00539785
151 2.80443 11.6262 6.61952
152 1.89925 10.3475 4.39063
153 4.61481 10.3475 4.39063
154 3.70963 9.06874 2.16404
155 6.4252 9.06873 2.16405
156 5.52002 7.79001 0.00513594
157 8.2356 7.78999 0.00514181
158 0.994039 16.741 11.0773
7220 32.6757 26.9709 2.16457
160 2.80441 15.4623 8.84842
161 1.89923 14.1836 6.61952
162 4.61479 14.1836 6.61952
163 3.70961 12.9049 4.39063
164 6.42518 12.9049 4.39063
165 5.52 11.6262 2.16404
166 8.23557 11.6262 2.16404
167 7.33039 10.3474 0.00513435
168 10.046 10.3474 0.00514023
169 0.994027 20.5772 13.3062
914 13.6667 0.117746 8.84856
171 2.8044 19.2985 11.0773
172 1.89922 18.0198 8.84842
173 4.61478 18.0197 8.84842
174 3.7096 16.741 6.61952
175 6.42516 16.741 6.61952
176 5.51998 15.4623 4.39063
177 8.23554 15.4623 4.39063
178 7.33036 14.1836 2.16404
179 10.0459 14.1836 2.16405
180 9.14075 12.9049 0.00513428
181 11.8563 12.9049 0.00514
182 0.994019 24.4133 15.5351
7394 32.6757 23.1345 13.3065
184 2.80439 23.1346 13.3062
185 1.89921 21.8559 11.0773
186 4.61476 21.8559 11.0773
187 3.70958 20.5772 8.84842
188 6.42514 20.5772 8.84843
189 5.51996 19.2985 6.61952
190 8.23552 19.2985 6.61953
191 7.33034 18.0198 4.39063
192 10.0459 18.0197 4.39063
193 9.14073 16.741 2.16405
194 11.8563 16.741 2.16405
195 10.9511 15.4623 0.00513714
196 13.6667 15.4623 0.00514376
197 0.994015 28.2495 17.7641
7381 32.6757 19.2984 11.0774
199 2.80438 26.9707 15.5352
200 1.8992 25.692 13.3062
201 4.61474 25.692 13.3062
202 3.70957 24.4133 11.0773
203 6.42512 24.4133 11.0773
204 5.51994 23.1346 8.84843
205 8.2355 23.1346 8.84844
206 7.33033 21.8559 6.61953
207 10.0459 21.8559 6.61954
208 9.14071 20.5772 4.39064
209 11.8563 20.5772 4.39064
210 10.9511 19.2985 2.16405
211 13.6667 19.2985 2.16406
212 12.7615 18.0198 0.00514616
213 15.4771 18.0198 0.00515719
214 2.80437 30.8069 17.7641
215 1.89919 29.5282 15.5352
216 4.61473 29.5282 15.5352
217 3.70956 28.2495 13.3062
218 6.4251 28.2494 13.3063
219 5.51993 26.9707 11.0773
220 8.23547 26.9707 11.0774
221 7.3303 25.692 8.84844
222 10.0459 25.692 8.84846
223 9.14069 24.4133 6.61955
224 11.8563 24.4133 6.61957
225 10.9511 23.1346 4.39065
226 13.6667 23.1346 4.39068
227 12.7615 21.8559 2.16407
228 15.4771 21.8559 2.1641
229 14.5719 20.5772 0.00516931
230 17.2875 20.5772 0.00519013
231 8.23545 30.8069 13.3063
232 7.33028 29.5282 11.0774
233 10.0458 29.5282 11.0774
234 9.14067 28.2495 8.84847
235 11.8562 28.2494 8.84851
236 10.9511 26.9707 6.61958
237 13.6666 26.9707 6.61963
238 12.7615 25.692 4.3907
239 15.477 25.692 4.39074
240 14.5719 24.4134 2.16412
241 17.2874 24.4134 2.16416
242 16.3823 23.1347 0.00521895
243 19.0979 23.1347 0.00525759
244 10.951 30.8069 8.84853
245 13.6666 30.8069 8.8486
246 12.7614 29.5282 6.61965
247 15.477 29.5282 6.61973
248 14.5719 28.2495 4.39078
249 17.2874 28.2495 4.39086
250 16.3823 26.9708 2.16421
251 19.0979 26.9708 2.16429
252 18.1927 25.6922 0.0053129
253 20.9083 25.6922 0.00537916
254 19.0978 30.8069 4.39105
255 18.1927 29.5283 2.16436
256 20.9083 29.5283 2.16449
257 20.0031 28.2496 0.00547205
258 22.7187 28.2497 0.0055727
7748 32.6757 26.9706 24.451
260 0.99409 1.39646 6.61953
1166 19.0978 0.117764 8.84877
7370 32.6757 15.4623 8.84851
263 0.994082 5.23262 8.84842
11290 32.6757 30.8067 8.84927
265 2.80446 3.95389 6.61952
266 1.89927 2.67516 4.39063
267 4.61484 2.67515 4.39063
268 3.70966 1.39642 2.16405
269 6.42525 1.39641 2.16406
5352 29.9601 30.8067 22.2223
5322 27.2444 30.8067 17.7645
272 0.994067 9.06877 11.0773
5315 24.5289 30.8068 22.2222
274 2.80444 7.79004 8.84842
275 1.89926 6.51132 6.61952
276 4.61482 6.51132 6.61952
277 3.70964 5.23259 4.39063
278 6.42521 5.23258 4.39063
279 5.52004 3.95386 2.16405
280 8.23562 3.95384 2.16406
281 7.33045 2.67512 0.00515839
282 10.046 2.67509 0.00518384
283 0.994052 12.9049 13.3062
1653 29.9601 0.117946 13.307
285 2.80443 11.6262 11.0773
286 1.89925 10.3475 8.84842
287 4.6148 10.3475 8.84842
288 3.70963 9.06875 6.61952
289 6.42519 9.06875 6.61952
290 5.52001 7.79002 4.39063
291 8.23558 7.79001 4.39063
292 7.33041 6.51129 2.16405
293 10.046 6.51127 2.16406
294 9.14081 5.23254 0.00515668
295 11.8564 5.23251 0.00518013
296 0.994038 16.741 15.5351
261 0.0888977 0.117727 4.39064
298 2.80441 15.4623 13.3062
299 1.89923 14.1836 11.0773
300 4.61479 14.1836 11.0773
301 3.70961 12.9049 8.84842
302 6.42516 12.9049 8.84842
303 5.51999 11.6262 6.61952
304 8.23555 11.6262 6.61952
305 7.33038 10.3475 4.39063
306 10.0459 10.3474 4.39063
307 9.14077 9.06872 2.16405
308 11.8563 9.0687 2.16406
309 10.9512 7.78997 0.00515376
310 13.6668 7.78994 0.00517321
311 0.994027 20.5772 17.7641
1632 16.3821 0.117817 22.222
313 2.8044 19.2985 15.5351
314 1.89922 18.0198 13.3062
315 4.61477 18.0197 13.3062
316 3.70959 16.741 11.0773
317 6.42515 16.741 11.0773
318 5.51997 15.4623 8.84842
319 8.23553 15.4623 8.84842
320 7.33035 14.1836 6.61952
321 10.0459 14.1836 6.61952
322 9.14074 12.9049 4.39063
323 11.8563 12.9049 4.39063
324 10.9511 11.6261 2.16405
325 13.6667 11.6261 2.16406
326 12.7615 10.3474 0.00515015
327 15.4771 10.3474 0.0051658
328 0.994021 24.4133 19.993
23 0.0888461 19.2985 2.16404
330 2.80439 23.1346 17.7641
331 1.89921 21.8559 15.5351
332 4.61476 21.8559 15.5351
333 3.70958 20.5772 13.3062
334 6.42513 20.5772 13.3062
335 5.51995 19.2985 11.0773
336 8.23551 19.2985 11.0773
337 7.33033 18.0197 8.84842
338 10.0459 18.0197 8.84843
339 9.14072 16.741 6.61952
340 11.8563 16.741 6.61953
341 10.9511 15.4623 4.39063
342 13.6667 15.4623 4.39063
343 12.7615 14.1836 2.16405
344 15.4771 14.1836 2.16406
345 14.5719 12.9048 0.00514857
346 17.2875 12.9048 0.00516095
347 0.994018 28.2495 22.2219
1633 19.0977 0.117839 22.2221
349 2.80438 26.9707 19.993
350 1.8992 25.692 17.7641
351 4.61474 25.692 17.7641
352 3.70956 24.4133 15.5351
353 6.42511 24.4133 15.5352
354 5.51993 23.1346 13.3062
355 8.23548 23.1346 13.3062
356 7.33031 21.8559 11.0773
357 10.0459 21.8559 11.0773
358 9.14069 20.5772 8.84843
359 11.8563 20.5772 8.84844
360 10.9511 19.2985 6.61953
361 13.6666 19.2985 6.61954
362 12.7615 18.0197 4.39064
363 15.477 18.0197 4.39064
364 14.5719 16.741 2.16406
365 17.2874 16.741 2.16407
366 16.3823 15.4623 0.00515293
367 19.0978 15.4623 0.0051649
368 2.80438 30.8069 22.2219
369 1.8992 29.5282 19.993
370 4.61474 29.5282 19.993
371 3.70956 28.2495 17.7641
372 6.4251 28.2494 17.7641
373 5.51992 26.9707 15.5352
374 8.23546 26.9707 15.5352
375 7.33029 25.692 13.3063
376 10.0458 25.692 13.3063
377 9.14067 24.4133 11.0773
378 11.8562 24.4133 11.0774
379 10.9511 23.1346 8.84845
380 13.6666 23.1346 8.84847
381 12.7614 21.8559 6.61955
382 15.477 21.8559 6.61957
383 14.5718 20.5772 4.39066
384 17.2874 20.5772 4.39068
385 16.3822 19.2985 2.16408
386 19.0978 19.2985 2.16409
387 18.1926 18.0198 0.0051708
388 20.9082 18.0198 0.00518656
389 8.23545 30.8069 17.7641
390 7.33027 29.5282 15.5352
391 10.0458 29.5281 15.5352
392 9.14064 28.2494 13.3063
393 11.8562 28.2494 13.3063
394 10.951 26.9707 11.0774
395 13.6666 26.9707 11.0774
396 12.7614 25.692 8.84849
397 15.477 25.692 8.84853
398 14.5718 24.4133 6.6196
399 17.2874 24.4133 6.61964
400 16.3822 23.1346 4.39071
401 19.0978 23.1346 4.39074
402 18.1926 21.8559 2.16412
403 20.9082 21.8559 2.16415
404 20.003 20.5772 0.00521401
405 22.7186 20.5772 0.00523912
406 13.6665 30.8068 13.3064
407 12.7614 29.5281 11.0774
408 15.4769 29.5281 11.0775
409 14.5718 28.2494 8.84857
410 17.2873 28.2494 8.84864
411 16.3822 26.9707 6.61968
412 19.0978 26.9707 6.61976
413 18.1926 25.692 4.3908
414 20.9082 25.692 4.39086
415 20.003 24.4134 2.16422
416 22.7186 24.4134 2.16427
417 21.8134 23.1347 0.0052996
418 24.529 23.1347 0.00533984
1640 21.8133 0.117882 17.7644
420 18.1926 29.5281 6.61983
421 20.9081 29.5281 6.61994
422 20.003 28.2495 4.39095
423 22.7186 28.2495 4.39105
424 21.8134 26.9708 2.16437
425 24.529 26.9709 2.16445
426 23.6238 25.6922 0.00544535
427 26.3394 25.6923 0.00550381
428 24.529 30.8069 4.39133
429 23.6238 29.5283 2.16461
430 26.3394 29.5283 2.16472
431 25.4342 28.2497 0.0056687
432 28.1498 28.2498 0.00574317
433 0.994091 1.39648 11.0773
1641 24.5289 0.117912 17.7645
5314 21.8133 30.8068 22.2221
436 0.994078 5.23263 13.3062
1705 21.8133 0.117863 22.2221
438 2.80445 3.95391 11.0773
439 1.89927 2.67518 8.84842
440 4.61483 2.67518 8.84843
441 3.70965 1.39645 6.61953
442 6.42521 1.39644 6.61954
1706 24.5289 0.117887 22.2222
5249 21.8132 30.8067 17.7644
445 0.994063 9.06877 15.5351
1713 27.2444 0.117939 17.7646
447 2.80444 7.79005 13.3062
448 1.89926 6.51134 11.0773
449 4.61481 6.51133 11.0773
450 3.70963 5.23261 8.84842
451 6.42519 5.23261 8.84843
452 5.52002 3.95388 6.61953
453 8.23558 3.95388 6.61954
454 7.33041 2.67514 4.39064
455 10.046 2.67513 4.39067
456 9.14083 1.39639 2.16409
457 11.8564 1.39637 2.16413
5242 16.3821 30.8068 22.222
1714 29.9601 0.117963 17.7647
460 0.994047 12.9049 17.764
7307 32.6757 26.9706 11.0778
462 2.80442 11.6262 15.5351
463 1.89924 10.3475 13.3062
464 4.61479 10.3475 13.3062
465 3.70962 9.06876 11.0773
466 6.42517 9.06876 11.0773
467 5.52 7.79004 8.84842
468 8.23555 7.79004 8.84842
469 7.33038 6.51131 6.61953
470 10.0459 6.51131 6.61954
471 9.14078 5.23257 4.39064
472 11.8564 5.23256 4.39067
473 10.9512 3.95382 2.16409
474 13.6668 3.95379 2.16413
475 12.7616 2.67505 0.00522697
476 15.4773 2.675 0.00529274
477 0.994036 16.741 19.993
183 0.0888382 23.1346 13.3062
479 2.80441 15.4623 17.764
480 1.89923 14.1836 15.5351
481 4.61478 14.1836 15.5351
482 3.7096 12.9049 13.3062
483 6.42516 12.9049 13.3062
484 5.51998 11.6262 11.0773
485 8.23553 11.6262 11.0773
486 7.33036 10.3475 8.84842
487 10.0459 10.3475 8.84842
488 9.14075 9.06874 6.61952
489 11.8563 9.06874 6.61953
490 10.9511 7.79 4.39064
491 13.6667 7.78999 4.39066
492 12.7616 6.51125 2.16408
493 15.4771 6.51122 2.16412
494 14.572 5.23247 0.00521775
495 17.2876 5.23242 0.00527215
496 0.994027 20.5772 22.2219
1344 5.51996 0.117763 22.2219
498 2.8044 19.2985 19.993
499 1.89922 18.0198 17.764
500 4.61477 18.0197 17.764
501 3.70959 16.741 15.5351
502 6.42514 16.741 15.5351
503 5.51996 15.4623 13.3062
504 8.23552 15.4623 13.3062
505 7.33034 14.1836 11.0773
506 10.0459 14.1836 11.0773
507 9.14072 12.9049 8.84842
508 11.8563 12.9049 8.84842
509 10.9511 11.6262 6.61952
510 13.6667 11.6262 6.61953
511 12.7615 10.3474 4.39064
512 15.4771 10.3474 4.39065
513 14.5719 9.06868 2.16408
514 17.2875 9.06866 2.1641
515 16.3823 7.78991 0.00520335
516 19.0979 7.78987 0.00524468
517 0.994022 24.4133 24.4508
435 2.80446 0.117744 8.84843
519 2.80439 23.1346 22.2219
520 1.89921 21.8559 19.993
521 4.61476 21.8559 19.993
522 3.70958 20.5772 17.7641
523 6.42513 20.5772 17.7641
524 5.51995 19.2985 15.5351
525 8.2355 19.2985 15.5351
526 7.33032 18.0197 13.3062
527 10.0459 18.0197 13.3062
528 9.1407 16.741 11.0773
529 11.8563 16.741 11.0773
530 10.9511 15.4623 8.84842
531 13.6666 15.4623 8.84843
532 12.7615 14.1836 6.61952
533 15.477 14.1836 6.61953
534 14.5719 12.9049 4.39064
535 17.2874 12.9049 4.39065
536 16.3823 11.6261 2.16407
537 19.0979 11.6261 2.16409
538 18.1927 10.3474 0.00518804
539 20.9083 10.3473 0.00521699
7287 32.6757 19.2984 6.61963
541 2.80439 26.9707 24.4508
542 1.8992 25.692 22.2219
543 4.61475 25.692 22.2219
544 3.70957 24.4133 19.993
545 6.42512 24.4133 19.993
546 5.51994 23.1346 17.7641
547 8.23548 23.1346 17.7641
548 7.33031 21.8559 15.5351
549 10.0459 21.8559 15.5352
550 9.14068 20.5772 13.3062
551 11.8562 20.5772 13.3063
552 10.9511 19.2984 11.0773
553 13.6666 19.2984 11.0773
554 12.7614 18.0197 8.84843
555 15.477 18.0197 8.84844
556 14.5718 16.741 6.61953
557 17.2874 16.741 6.61954
558 16.3822 15.4623 4.39064
559 19.0978 15.4623 4.39065
560 18.1926 14.1836 2.16407
561 20.9082 14.1836 2.16408
562 20.0031 12.9048 0.00517728
563 22.7186 12.9048 0.00519737
564 1.8992 29.5282 24.4508
565 4.61475 29.5282 24.4508
566 3.70956 28.2495 22.2219
567 6.42511 28.2495 22.2219
568 5.51992 26.9707 19.993
569 8.23547 26.9707 19.993
570 7.33029 25.692 17.7641
571 10.0458 25.692 17.7641
572 9.14066 24.4133 15.5352
573 11.8562 24.4133 15.5352
574 10.951 23.1346 13.3063
575 13.6666 23.1346 13.3063
576 12.7614 21.8559 11.0774
577 15.477 21.8558 11.0774
578 14.5718 20.5772 8.84845
579 17.2874 20.5771 8.84847
580 16.3822 19.2984 6.61955
581 19.0978 19.2984 6.61957
582 18.1926 18.0197 4.39066
583 20.9082 18.0197 4.39067
584 20.003 16.741 2.16408
585 22.7186 16.741 2.16409
586 21.8134 15.4623 0.00517893
587 24.529 15.4623 0.00519395
588 7.33028 29.5282 19.993
589 10.0458 29.5281 19.993
590 9.14064 28.2494 17.7641
591 11.8562 28.2494 17.7641
592 10.951 26.9707 15.5352
593 13.6666 26.9707 15.5352
594 12.7614 25.692 13.3063
595 15.4769 25.692 13.3063
596 14.5718 24.4133 11.0774
597 17.2873 24.4133 11.0774
598 16.3822 23.1346 8.8485
599 19.0977 23.1345 8.84853
600 18.1926 21.8559 6.6196
601 20.9082 21.8559 6.61963
602 20.003 20.5772 4.3907
603 22.7186 20.5772 4.39072
604 21.8134 19.2985 2.16411
605 24.529 19.2985 2.16413
606 23.6238 18.0198 0.00520277
607 26.3394 18.0198 0.00521758
608 12.7614 29.5281 15.5353
609 15.4769 29.5281 15.5353
610 14.5717 28.2494 13.3064
611 17.2873 28.2494 13.3064
612 16.3821 26.9707 11.0775
613 19.0977 26.9707 11.0775
614 18.1925 25.692 8.84858
615 20.9081 25.692 8.84864
616 20.003 24.4133 6.61968
617 22.7185 24.4133 6.61973
618 21.8134 23.1346 4.39078
619 24.5289 23.1346 4.39082
620 23.6238 21.8559 2.16418
621 26.3394 21.8559 2.16421
622 25.4342 20.5773 0.00526231
623 28.1497 20.5773 0.00528021
624 18.1925 29.5281 11.0776
625 20.9081 29.5281 11.0777
626 20.0029 28.2494 8.84873
627 22.7185 28.2494 8.84882
628 21.8133 26.9707 6.61983
629 24.5289 26.9707 6.61991
630 23.6238 25.692 4.39093
631 26.3393 25.692 4.39098
632 25.4342 24.4134 2.16432
633 28.1497 24.4134 2.16435
634 27.2446 23.1348 0.00537288
635 29.9601 23.1348 0.00539309
636 23.6237 29.5281 6.62005
637 26.3393 29.5281 6.62015
638 25.4341 28.2495 4.39114
639 28.1497 28.2495 4.39122
640 27.2446 26.9709 2.16452
641 29.9601 26.9709 2.16456
642 29.0549 25.6923 0.00554509
643 31.7705 25.6923 0.00556355
644 29.055 29.5283 2.1648
645 31.7705 29.5283 2.16484
646 30.8653 28.2498 0.00578735
647 0.994084 1.39648 15.5352
7538 32.6757 23.1345 17.7642
1753 30.8653 1.39662 24.4511
650 0.99407 5.23263 17.7641
1752 30.8653 9.06885 24.4509
652 2.80444 3.95392 15.5351
653 1.89927 2.6752 13.3062
654 4.61481 2.67519 13.3062
655 3.70964 1.39647 11.0773
656 6.42518 1.39647 11.0773
5130 19.0977 30.8068 17.7643
5011 27.2445 30.8069 4.39145
659 0.994055 9.06877 19.993
1652 27.2445 0.117918 13.3069
661 2.80443 7.79006 17.7641
662 1.89925 6.51135 15.5351
663 4.6148 6.51134 15.5351
664 3.70962 5.23263 13.3062
665 6.42517 5.23263 13.3062
666 5.52 3.9539 11.0773
667 8.23554 3.95391 11.0773
668 7.33038 2.67518 8.84844
669 10.0459 2.67518 8.84846
670 9.14078 1.39644 6.61956
671 11.8563 1.39643 6.6196
4992 24.5289 30.8068 8.84906
4991 21.8133 30.8068 8.84894
674 0.994043 12.9049 22.2219
1751 30.8653 5.23277 22.2221
676 2.80442 11.6262 19.993
677 1.89924 10.3475 17.764
678 4.61479 10.3475 17.764
679 3.70961 9.06877 15.5351
680 6.42516 9.06877 15.5351
681 5.51998 7.79005 13.3062
682 8.23553 7.79006 13.3062
683 7.33036 6.51133 11.0773
684 10.0459 6.51134 11.0773
685 9.14074 5.23261 8.84844
686 11.8563 5.23261 8.84846
687 10.9511 3.95387 6.61956
688 13.6667 3.95387 6.6196
689 12.7616 2.67512 4.39071
690 15.4771 2.6751 4.39077
691 14.572 1.39634 2.1642
692 17.2876 1.3963 2.1643
74 0.0888469 19.2985 6.61952
1750 31.7705 6.51145 24.451
695 0.994034 16.741 24.4508
1749 29.0549 6.51144 24.451
697 2.80441 15.4623 22.2219
698 1.89923 14.1836 19.993
699 4.61478 14.1836 19.993
700 3.7096 12.9049 17.764
701 6.42515 12.9049 17.764
702 5.51997 11.6262 15.5351
703 8.23552 11.6262 15.5351
704 7.33034 10.3475 13.3062
705 10.0459 10.3475 13.3062
706 9.14072 9.06876 11.0773
707 11.8563 9.06877 11.0773
708 10.9511 7.79004 8.84843
709 13.6667 7.79004 8.84845
710 12.7615 6.5113 6.61956
711 15.4771 6.5113 6.61959
712 14.5719 5.23255 4.3907
713 17.2875 5.23253 4.39075
714 16.3824 3.95376 2.16419
715 19.098 3.95373 2.16426
716 18.1929 2.67493 0.00538148
717 20.9085 2.67487 0.00549126
657 5.52001 0.117741 8.84843
719 2.8044 19.2985 24.4508
720 1.89922 18.0198 22.2219
721 4.61477 18.0198 22.2219
722 3.70959 16.741 19.993
723 6.42514 16.741 19.993
724 5.51996 15.4623 17.764
725 8.23551 15.4623 17.7641
726 7.33033 14.1836 15.5351
727 10.0459 14.1836 15.5351
728 9.14071 12.9049 13.3062
729 11.8563 12.9049 13.3062
730 10.9511 11.6262 11.0773
731 13.6666 11.6262 11.0773
732 12.7615 10.3475 8.84843
733 15.477 10.3475 8.84844
734 14.5719 9.06873 6.61955
735 17.2874 9.06873 6.61957
736 16.3823 7.78998 4.39069
737 19.0979 7.78997 4.39072
738 18.1927 6.5112 2.16416
739 20.9083 6.51117 2.16422
740 20.0032 5.23237 0.0053429
741 22.7188 5.23231 0.00542601
742 1.89921 21.8559 24.4508
743 4.61476 21.8559 24.4508
744 3.70958 20.5772 22.2219
745 6.42513 20.5772 22.2219
746 5.51995 19.2985 19.993
747 8.2355 19.2985 19.993
748 7.33032 18.0197 17.7641
749 10.0459 18.0197 17.7641
750 9.1407 16.741 15.5351
751 11.8563 16.741 15.5351
752 10.9511 15.4623 13.3062
753 13.6666 15.4623 13.3062
754 12.7615 14.1836 11.0773
755 15.477 14.1836 11.0773
756 14.5718 12.9049 8.84843
757 17.2874 12.9049 8.84844
758 16.3822 11.6262 6.61954
759 19.0978 11.6262 6.61956
760 18.1927 10.3474 4.39067
761 20.9082 10.3474 4.3907
762 20.0031 9.06864 2.16413
763 22.7187 9.06862 2.16417
764 21.8135 7.78982 0.00529662
765 24.5291 7.78978 0.00535472
766 3.70957 24.4133 24.4508
767 6.42513 24.4133 24.4508
768 5.51994 23.1346 22.2219
769 8.23549 23.1346 22.2219
770 7.33031 21.8559 19.993
771 10.0459 21.8559 19.993
772 9.14068 20.5772 17.7641
773 11.8562 20.5772 17.7641
774 10.9511 19.2984 15.5352
775 13.6666 19.2984 15.5352
776 12.7614 18.0197 13.3062
777 15.477 18.0197 13.3063
778 14.5718 16.741 11.0773
779 17.2874 16.741 11.0773
780 16.3822 15.4623 8.84843
781 19.0978 15.4623 8.84844
782 18.1926 14.1836 6.61954
783 20.9082 14.1836 6.61955
784 20.003 12.9049 4.39066
785 22.7186 12.9048 4.39068
786 21.8134 11.6261 2.16411
787 24.529 11.6261 2.16413
788 23.6239 10.3473 0.00525215
789 26.3394 10.3473 0.00528965
790 5.51994 26.9707 24.4508
791 8.23549 26.9707 24.4508
792 7.3303 25.692 22.2219
793 10.0459 25.692 22.2219
794 9.14067 24.4133 19.993
795 11.8562 24.4133 19.993
796 10.951 23.1346 17.7641
797 13.6666 23.1346 17.7641
798 12.7614 21.8559 15.5352
799 15.477 21.8558 15.5352
800 14.5718 20.5771 13.3063
801 17.2874 20.5771 13.3063
802 16.3822 19.2984 11.0774
803 19.0978 19.2984 11.0774
804 18.1926 18.0197 8.84845
805 20.9082 18.0197 8.84846
806 20.003 16.741 6.61955
807 22.7186 16.741 6.61956
808 21.8134 15.4623 4.39066
809 24.529 15.4623 4.39067
810 23.6238 14.1835 2.16409
811 26.3394 14.1835 2.16411
812 25.4342 12.9048 0.00521962
813 28.1498 12.9048 0.00524201
814 7.33029 29.5282 24.4508
815 10.0458 29.5282 24.4508
816 9.14065 28.2494 22.2219
817 11.8562 28.2494 22.2219
818 10.951 26.9707 19.993
819 13.6666 26.9707 19.993
820 12.7614 25.692 17.7641
821 15.4769 25.692 17.7641
822 14.5718 24.4133 15.5352
823 17.2873 24.4132 15.5352
824 16.3822 23.1345 13.3063
825 19.0977 23.1345 13.3063
826 18.1926 21.8558 11.0774
827 20.9081 21.8558 11.0774
828 20.003 20.5771 8.84849
829 22.7185 20.5771 8.84851
830 21.8134 19.2984 6.61958
831 24.5289 19.2984 6.6196
832 23.6238 18.0197 4.39068
833 26.3393 18.0197 4.3907
834 25.4342 16.741 2.1641
835 28.1497 16.741 2.16411
836 27.2446 15.4623 0.00520886
837 29.9601 15.4623 0.00522127
838 10.951 30.8069 22.2219
839 13.6666 30.8068 22.222
840 12.7614 29.5281 19.9931
841 15.4769 29.5281 19.9931
842 14.5717 28.2494 17.7642
843 17.2873 28.2494 17.7642
844 16.3821 26.9707 15.5353
845 19.0977 26.9706 15.5353
846 18.1925 25.6919 13.3064
847 20.9081 25.6919 13.3064
848 20.0029 24.4132 11.0775
849 22.7185 24.4132 11.0775
850 21.8133 23.1345 8.84857
851 24.5289 23.1345 8.84861
852 23.6237 21.8558 6.61966
853 26.3393 21.8558 6.61968
854 25.4341 20.5772 4.39074
855 28.1497 20.5772 4.39076
856 27.2445 19.2985 2.16414
857 29.9601 19.2985 2.16415
858 29.0549 18.0198 0.00522895
859 31.7705 18.0198 0.00523519
860 16.3821 30.8068 17.7643
861 18.1925 29.5281 15.5354
862 20.9081 29.528 15.5355
863 20.0029 28.2493 13.3065
864 22.7185 28.2493 13.3066
865 21.8133 26.9706 11.0776
866 24.5289 26.9706 11.0777
867 23.6237 25.6919 8.8487
868 26.3393 25.6919 8.84875
869 25.4341 24.4133 6.61978
870 28.1497 24.4133 6.61982
871 27.2445 23.1346 4.39085
872 29.9601 23.1346 4.39087
873 29.0549 21.856 2.16423
874 31.7705 21.856 2.16424
875 30.8653 20.5773 0.00529003
876 23.6237 29.528 11.0778
877 26.3393 29.528 11.0779
878 25.4341 28.2493 8.8489
879 28.1497 28.2493 8.84897
880 27.2445 26.9707 6.61997
881 29.9601 26.9707 6.62002
882 29.0549 25.692 4.39102
883 31.7705 25.692 4.39104
884 30.8653 24.4134 2.16437
885 29.0549 29.5281 6.62023
886 31.7705 29.5281 6.62027
887 30.8653 28.2495 4.39126
888 0.994072 1.39648 19.993
1748 30.8653 1.39667 19.9934
4975 16.3821 30.8068 13.3065
891 0.994059 5.23263 22.2219
1747 31.7705 2.67536 22.2222
893 2.80443 3.95391 19.993
894 1.89926 2.6752 17.7641
895 4.61479 2.6752 17.7641
896 3.70962 1.39648 15.5352
897 6.42516 1.39648 15.5352
4964 13.6665 30.8068 17.7642
4963 10.951 30.8069 17.7641
900 0.994048 9.06877 24.4508
7248 32.6757 26.9707 6.62003
902 2.80442 7.79006 22.2219
903 1.89924 6.51134 19.993
904 4.61479 6.51134 19.993
905 3.70961 5.23263 17.7641
906 6.42516 5.23263 17.7641
907 5.51998 3.95392 15.5351
908 8.23552 3.95392 15.5352
909 7.33035 2.6752 13.3062
910 10.0459 2.6752 13.3063
911 9.14073 1.39647 11.0774
912 11.8563 1.39648 11.0774
4956 8.23546 30.8069 22.2219
4955 5.51992 30.8069 22.2219
1746 29.0549 2.67535 22.2222
916 2.80441 11.6262 24.4508
917 1.89923 10.3475 22.2219
918 4.61478 10.3475 22.2219
919 3.7096 9.06877 19.993
920 6.42515 9.06877 19.993
921 5.51997 7.79006 17.7641
922 8.23552 7.79006 17.7641
923 7.33034 6.51135 15.5351
924 10.0459 6.51135 15.5352
925 9.14071 5.23263 13.3062
926 11.8563 5.23264 13.3063
927 10.9511 3.95391 11.0774
928 13.6666 3.95392 11.0774
929 12.7615 2.67518 8.8485
930 15.4771 2.67518 8.84856
931 14.5719 1.39643 6.61967
932 17.2875 1.39643 6.61976
1345 8.2355 0.11777 22.2219
4796 21.8134 30.8069 4.39119
935 1.89922 14.1836 24.4508
936 4.61478 14.1836 24.4508
937 3.7096 12.9049 22.2219
938 6.42515 12.9049 22.2219
939 5.51997 11.6262 19.993
940 8.23552 11.6262 19.993
941 7.33034 10.3475 17.7641
942 10.0459 10.3475 17.7641
943 9.14071 9.06877 15.5351
944 11.8563 9.06878 15.5352
945 10.9511 7.79006 13.3062
946 13.6666 7.79007 13.3063
947 12.7615 6.51134 11.0774
948 15.477 6.51135 11.0774
949 14.5719 5.23261 8.84849
950 17.2874 5.23262 8.84854
951 16.3823 3.95386 6.61965
952 19.0978 3.95386 6.61973
953 18.1927 2.67508 4.39086
954 20.9083 2.67507 4.39096
955 20.0032 1.39626 2.16442
956 22.7188 1.39621 2.16456
4777 16.3821 30.8068 8.84869
4762 10.951 30.8069 13.3063
959 3.70959 16.741 24.4508
960 6.42515 16.741 24.4508
961 5.51996 15.4623 22.2219
962 8.23552 15.4623 22.2219
963 7.33033 14.1836 19.993
964 10.0459 14.1836 19.993
965 9.1407 12.9049 17.7641
966 11.8563 12.9049 17.7641
967 10.9511 11.6262 15.5351
968 13.6666 11.6262 15.5352
969 12.7615 10.3475 13.3062
970 15.477 10.3475 13.3063
971 14.5718 9.06877 11.0774
972 17.2874 9.06878 11.0774
973 16.3822 7.79004 8.84848
974 19.0978 7.79005 8.84851
975 18.1926 6.5113 6.61963
976 20.9082 6.5113 6.61969
977 20.0031 5.23252 4.39082
978 22.7187 5.23251 4.3909
979 21.8135 3.95369 2.16436
980 24.5291 3.95366 2.16447
981 23.624 2.6748 0.00561488
982 26.3396 2.67474 0.00574201
983 5.51996 19.2985 24.4508
984 8.23551 19.2985 24.4508
985 7.33033 18.0197 22.2219
986 10.0459 18.0197 22.2219
987 9.1407 16.741 19.993
988 11.8563 16.741 19.993
989 10.9511 15.4623 17.7641
990 13.6666 15.4623 17.7641
991 12.7614 14.1836 15.5351
992 15.477 14.1836 15.5352
993 14.5718 12.9049 13.3062
994 17.2874 12.9049 13.3063
995 16.3822 11.6262 11.0773
996 19.0978 11.6262 11.0774
997 18.1926 10.3475 8.84846
998 20.9082 10.3475 8.84849
999 20.003 9.06873 6.6196
1000 22.7186 9.06873 6.61964
1001 21.8134 7.78996 4.39077
1002 24.529 7.78995 4.39083
1003 23.6239 6.51114 2.16429
1004 26.3395 6.51112 2.16436
1005 25.4344 5.23226 0.00551486
1006 28.1499 5.23223 0.00560095
1007 7.33032 21.8559 24.4508
1008 10.0459 21.8559 24.4508
1009 9.14069 20.5772 22.2219
1010 11.8562 20.5772 22.2219
1011 10.9511 19.2985 19.993
1012 13.6666 19.2984 19.993
1013 12.7614 18.0197 17.7641
1014 15.477 18.0197 17.7641
1015 14.5718 16.741 15.5352
1016 17.2874 16.741 15.5352
1017 16.3822 15.4623 13.3062
1018 19.0978 15.4623 13.3063
1019 18.1926 14.1836 11.0773
1020 20.9082 14.1836 11.0774
1021 20.003 12.9049 8.84845
1022 22.7186 12.9049 8.84847
1023 21.8134 11.6262 6.61958
1024 24.529 11.6262 6.6196
1025 23.6238 10.3474 4.39073
1026 26.3394 10.3474 4.39077
1027 25.4342 9.0686 2.16422
1028 28.1498 9.06859 2.16427
1029 27.2447 7.78975 0.00541343
1030 29.9602 7.78973 0.00546565
1031 9.14068 24.4133 24.4508
1032 11.8562 24.4133 24.4508
1033 10.951 23.1346 22.2219
1034 13.6666 23.1346 22.2219
1035 12.7614 21.8559 19.993
1036 15.477 21.8559 19.993
1037 14.5718 20.5771 17.7641
1038 17.2874 20.5771 17.7641
1039 16.3822 19.2984 15.5352
1040 19.0977 19.2984 15.5352
1041 18.1926 18.0197 13.3063
1042 20.9081 18.0197 13.3063
1043 20.003 16.741 11.0774
1044 22.7185 16.741 11.0774
1045 21.8134 15.4623 8.84846
1046 24.5289 15.4623 8.84847
1047 23.6238 14.1836 6.61957
1048 26.3393 14.1836 6.61958
1049 25.4342 12.9048 4.3907
1050 28.1497 12.9049 4.39072
1051 27.2446 11.6261 2.16416
1052 29.9602 11.6261 2.16419
1053 29.055 10.3473 0.00532514
1054 31.7706 10.3472 0.0053539
1055 10.951 26.9707 24.4508
1056 13.6666 26.9707 24.4508
1057 12.7614 25.692 22.2219