LAMMPS data file via write_data, version 2 Aug 2023, timestep = 202, units = metal

14401 atoms
3 atom types

0.08859270732512195 65.26281355937532 xlo xhi
0.11746028429204744 61.49643642405568 ylo yhi
-22.32607499925337 75.68527477483285 zlo zhi

Masses

1 183.84
2 1.008
3 4.0026

Atoms # atomic

1 1 0.9937902191590833 28.249491015016925 0.005197756129615659 0 0 0
1548 1 27.244427739116603 0.11764212157186033 8.848278690600173 0 0 0
3 1 0.9937902191590955 20.577118997546464 0.005197756129708545 0 0 0
4 1 0.9937902191590804 24.4133050062817 2.1640941029009992 0 0 0
1533 1 24.52874551431383 0.11772801791623559 13.306081610875186 0 0 0
6 1 2.8041852428271605 23.13457633670329 0.005197756129703106 0 0 0
7 1 0.9937902191590953 28.249491015016726 4.390652918427788 0 0 0
1520 1 16.382144469489795 0.11746301307637648 17.76392696825677 0 0 0
9 1 2.8041852428271614 26.970762345438498 2.1640941029009415 0 0 0
10 1 1.898987730993109 25.692033675860113 0.005197756129681313 0 0 0
11 1 4.614580266495202 25.692033675860095 0.0051977561296484 0 0 0
12 1 2.8041852428240555 30.806948354171997 4.3906529184263645 0 0 0
13 1 1.8989877309933447 29.528219684595168 2.164094102900838 0 0 0
14 1 4.614580266495155 29.528219684594976 2.164094102899702 0 0 0
15 1 3.709382754661157 28.24949101501692 0.005197756129626525 0 0 0
16 1 6.424975290162807 28.24949101501661 0.005197756128572987 0 0 0
17 1 8.235370313821269 30.8069483541678 0.005197756106972287 0 0 0
18 1 0.9937902191590962 12.90474698007602 0.005197756129703103 0 0 0
19 1 0.9937902191590875 16.74093298881125 2.16409410290101 0 0 0
5351 1 27.244436257177405 30.806789547595805 22.221828323410598 0 0 0
21 1 2.8041852428271588 15.462204319232834 0.005197756129703113 0 0 0
22 1 0.9937902191590888 20.577118997546467 4.390652918427842 0 0 0
7909 1 32.67570313330652 15.462204319691823 22.221752457705147 0 0 0
24 1 2.8041852428271645 19.29839032796807 2.16409410290101 0 0 0
25 1 1.898987730993114 18.01966165838966 0.00519775612970853 0 0 0
26 1 4.614580266495225 18.01966165838966 0.005197756129703094 0 0 0
27 1 0.9937902191589785 24.413305006281668 6.6195162997083035 0 0 0
5323 1 29.959966967330924 30.806524555345224 17.76398241704454 0 0 0
29 1 2.8041852428270735 23.134576336703244 4.390652918427816 0 0 0
30 1 1.8989877309931296 21.855847667124877 2.16409410290101 0 0 0
31 1 4.614580266495215 21.855847667124863 2.164094102900988 0 0 0
32 1 3.709382754661193 20.577118997546467 0.005197756129697643 0 0 0
33 1 6.424975290163289 20.57711899754646 0.005197756129670324 0 0 0
34 1 0.9937902191565698 28.249491015016524 8.848383682588532 0 0 0
1513 1 13.666555301821186 0.11746034139056977 22.221752461006936 0 0 0
36 1 2.8041852428250778 26.970762345437443 6.619516299707614 0 0 0
37 1 1.8989877309929717 25.692033675860046 4.3906529184278105 0 0 0
38 1 4.614580266493201 25.692033675858916 4.390652918426946 0 0 0
39 1 3.709382754661192 24.413305006281675 2.1640941029009637 0 0 0
40 1 6.424975290163089 24.41330500628131 2.1640941029003016 0 0 0
41 1 5.519777778329246 23.13457633670328 0.005197756129672976 0 0 0
42 1 8.23537031383117 23.13457633670309 0.005197756129109383 0 0 0
43 1 2.804185242790889 30.80694835415803 8.848383682578378 0 0 0
44 1 1.8989877309902874 29.52821968459414 6.619516299707554 0 0 0
45 1 4.614580266453456 29.528219684574584 6.619516299692819 0 0 0
46 1 3.709382754658351 28.249491015015504 4.390652918426628 0 0 0
47 1 6.424975290122317 28.24949101499443 4.390652918408687 0 0 0
48 1 5.519777778329111 26.970762345438118 2.164094102899995 0 0 0
49 1 8.235370313825525 26.970762345430355 2.164094102885596 0 0 0
50 1 7.330172801997003 25.692033675859836 0.005197756128849352 0 0 0
51 1 10.045765337494819 25.692033675855455 0.005197756116707296 0 0 0
52 1 7.330172801991362 29.52821968458716 2.1640941028802225 0 0 0
53 1 10.04576533735494 29.52821968444488 2.1640941026105933 0 0 0
54 1 9.14056782565793 28.24949101501124 0.005197756111626374 0 0 0
55 1 11.856160361061088 28.249491014925443 0.005197755877774467 0 0 0
56 1 13.666555382633502 30.806948352618516 0.005197751965268645 0 0 0
57 1 0.9937902191591242 5.232374962605571 0.005197756129686596 0 0 0
58 1 0.9937902191590868 9.06856097134081 2.164094102901002 0 0 0
5261 1 29.9599597803302 30.806557580257863 13.306080208529869 0 0 0
60 1 2.804185242827176 7.789832301762381 0.005197756129713976 0 0 0
61 1 0.9937902191591163 12.90474698007604 4.390652918427859 0 0 0
5157 1 27.24443377079418 30.80679288152962 8.848315134587835 0 0 0
63 1 2.804185242827159 11.626018310497615 2.1640941029010157 0 0 0
64 1 1.8989877309931145 10.347289640919207 0.0051977561297084935 0 0 0
65 1 4.614580266495232 10.347289640919199 0.0051977561297139735 0 0 0
66 1 0.9937902191590998 16.740932988811252 6.619516299708332 0 0 0
8343 1 32.67566912048598 0.11778828054961661 22.22192251436749 0 0 0
68 1 2.8041852428271663 15.462204319232834 4.390652918427859 0 0 0
69 1 1.8989877309931282 14.183475649654433 2.16409410290101 0 0 0
70 1 4.61458026649522 14.183475649654435 2.16409410290101 0 0 0
71 1 3.7093827546611866 12.904746980076018 0.005197756129703091 0 0 0
72 1 6.424975290163301 12.904746980076 0.005197756129703095 0 0 0
73 1 0.9937902191590636 20.577118997546446 8.848383682588796 0 0 0
136 1 2.8041852428235874 0.11746028429296018 0.005197756129441466 0 0 0
75 1 2.804185242827127 19.29839032796804 6.6195162997083425 0 0 0
76 1 1.8989877309931218 18.019661658389662 4.390652918427859 0 0 0
77 1 4.614580266495198 18.019661658389644 4.390652918427842 0 0 0
78 1 3.7093827546611964 16.74093298881124 2.16409410290101 0 0 0
79 1 6.42497529016329 16.740932988811235 2.1640941029009966 0 0 0
80 1 5.51977777832926 15.462204319232834 0.005197756129703117 0 0 0
81 1 8.235370313831332 15.462204319232855 0.0051977561296866846 0 0 0
82 1 0.9937902191584258 24.41330500628125 11.077256295187349 0 0 0
5141 1 21.813266563792848 30.806878056582654 13.306122931308535 0 0 0
84 1 2.8041852428262946 23.134576336702754 8.84838368258856 0 0 0
85 1 1.8989877309930596 21.855847667124852 6.619516299708309 0 0 0
86 1 4.614580266494345 21.855847667124277 6.619516299708009 0 0 0
87 1 3.7093827546611418 20.577118997546428 4.390652918427837 0 0 0
88 1 6.424975290162564 20.577118997545917 4.390652918427509 0 0 0
89 1 5.519777778329255 19.298390327968054 2.164094102900988 0 0 0
90 1 8.235370313831181 19.29839032796784 2.1640941029007665 0 0 0
91 1 7.330172801997319 18.01966165838966 0.005197756129686684 0 0 0
92 1 10.045765337499375 18.019661658389587 0.005197756129517034 0 0 0
93 1 0.9937902191468794 28.249491015011923 13.306136997371608 0 0 0
651 1 0.08859270854851894 3.953646293687485 15.535027054668562 0 0 0
95 1 2.8041852428104006 26.970762345429534 11.07725629518377 0 0 0
96 1 1.898987730991825 25.692033675859395 8.848383682588418 0 0 0
97 1 4.614580266475156 25.692033675848265 8.848383682582634 0 0 0
98 1 3.709382754659771 24.413305006280833 6.619516299707817 0 0 0
99 1 6.424975290143086 24.41330500626852 6.6195162997004635 0 0 0
100 1 5.519777778327962 23.13457633670244 4.390652918427252 0 0 0
101 1 8.235370313814542 23.134576336691122 4.390652918419499 0 0 0
102 1 7.330172801997118 21.855847667124557 2.164094102900564 0 0 0
103 1 10.045765337495284 21.85584766711977 2.1640941028950813 0 0 0
104 1 9.140567825665304 20.57711899754635 0.005197756129355609 0 0 0
105 1 11.856160361165776 20.577118997544403 0.005197756124961371 0 0 0
262 1 2.80418524282664 0.11746028429440969 4.390652918425964 0 0 0
107 1 1.8989877309701286 29.528219684585615 11.077256295182748 0 0 0
108 1 4.61458026615649 29.528219684426766 11.077256295106794 0 0 0
109 1 3.7093827546329647 28.249491015002356 8.848383682580238 0 0 0
110 1 6.42497528976633 28.24949101479756 8.848383682458389 0 0 0
111 1 5.519777778298545 26.970762345420987 6.6195162996966275 0 0 0
112 1 8.235370313433448 26.970762345194323 6.619516299544503 0 0 0
113 1 7.3301728019693835 25.692033675842485 4.390652918414421 0 0 0
114 1 10.045765337167884 25.692033675633507 4.3906529182555145 0 0 0
115 1 9.140567825660149 24.413305006274694 2.164094102890786 0 0 0
116 1 11.856160361075762 24.413305006180064 2.1640941027749983 0 0 0
117 1 10.950962849330955 23.13457633670046 0.005197756121623563 0 0 0
118 1 13.666555384786934 23.13457633665226 0.005197756024267205 0 0 0
119 1 7.330172801429106 29.528219684293063 6.619516299479531 0 0 0
120 1 10.045765330905747 29.528219680819166 6.61951629683894 0 0 0
121 1 9.140567825149235 28.249491014711978 4.390652918167427 0 0 0
122 1 11.856160355663993 28.24949101149268 4.390652915429094 0 0 0
123 1 10.950962849214887 26.97076234530621 2.16409410269748 0 0 0
124 1 13.666555383048353 26.970762343693654 2.164094100631482 0 0 0
125 1 12.761357872934203 25.692033675799504 0.005197755964327967 0 0 0
126 1 15.47695040735564 25.69203367478949 0.0051977541395527155 0 0 0
127 1 10.950962841318722 30.806948349778082 4.3906529141814765 0 0 0
128 1 13.66655530988902 30.806948309618992 4.390652875604357 0 0 0
129 1 12.761357870661849 29.52821968246172 2.164094099476365 0 0 0
130 1 15.476950379208295 29.52821965942636 2.1640940691397517 0 0 0
131 1 14.571752895086544 28.249491013836472 0.005197753208684491 0 0 0
132 1 17.287345410801137 28.2494909969544 0.005197725316089061 0 0 0
133 1 16.382147890084106 30.80694833427717 0.005197712760563156 0 0 0
134 1 0.993790219158917 1.3961889538705834 2.1640941029002683 0 0 0
648 1 0.08859270987913435 0.11746028540859044 13.306136996759351 0 0 0
1817 1 4.6145802664952384 10.347289640919197 26.67959988778972 0 0 0
137 1 0.9937902191605236 5.23237496260634 4.390652918427214 0 0 0
7425 1 32.67563805793906 30.80641374579878 17.763993394917968 0 0 0
139 1 2.8041852428270895 3.9536462930272287 2.1640941029009912 0 0 0
140 1 1.8989877309931331 2.6749176234488155 0.005197756129651022 0 0 0
141 1 4.614580266492732 2.6749176234502903 0.005197756129544918 0 0 0
142 1 0.9937902191598 9.068560971341254 6.619516299708063 0 0 0
899 1 8.235370313085202 0.11746028469679715 13.306136997326954 0 0 0
144 1 2.804185242827223 7.789832301762424 4.390652918427837 0 0 0
145 1 1.89898773099313 6.511103632183986 2.1640941029009912 0 0 0
146 1 4.61458026649517 6.511103632184021 2.16409410290101 0 0 0
147 1 3.709382754661236 5.232374962605557 0.005197756129683856 0 0 0
148 1 6.424975290161205 5.232374962607072 0.005197756129522995 0 0 0
149 1 0.9937902191593477 12.904746980076208 8.848383682588715 0 0 0
7409 1 32.6756856112649 26.97060449258972 15.535026873665489 0 0 0
151 1 2.804185242827185 11.626018310497631 6.619516299708332 0 0 0
152 1 1.8989877309931527 10.347289640919232 4.390652918427849 0 0 0
153 1 4.614580266495231 10.347289640919215 4.390652918427865 0 0 0
154 1 3.709382754661196 9.06856097134079 2.16409410290101 0 0 0
155 1 6.424975290163218 9.068560971340842 2.1640941029010263 0 0 0
156 1 5.519777778329277 7.789832301762361 0.0051977561296838734 0 0 0
157 1 8.235370313829266 7.789832301764151 0.005197756129555904 0 0 0
158 1 0.9937902191591401 16.740932988811306 11.07725629518749 0 0 0
435 1 2.8041852428524763 0.11746028430210487 8.848383682581854 0 0 0
160 1 2.804185242827163 15.462204319232844 8.848383682588796 0 0 0
161 1 1.8989877309931402 14.183475649654444 6.619516299708332 0 0 0
162 1 4.614580266495214 14.183475649654426 6.619516299708332 0 0 0
163 1 3.709382754661192 12.904746980076025 4.390652918427859 0 0 0
164 1 6.424975290163296 12.904746980076009 4.390652918427865 0 0 0
165 1 5.519777778329265 11.626018310497606 2.16409410290101 0 0 0
166 1 8.23537031383121 11.62601831049772 2.1640941029010596 0 0 0
167 1 7.330172801997252 10.34728964091921 0.005197756129678433 0 0 0
168 1 10.045765337497782 10.347289640921739 0.005197756129564538 0 0 0
169 1 0.9937902191589003 20.577118997546346 13.306136997372972 0 0 0
2091 1 14.57175289676973 12.90474697989374 26.67959988771608 0 0 0
171 1 2.804185242826915 19.29839032796788 11.077256295187464 0 0 0
172 1 1.8989877309931156 18.01966165838965 8.848383682588807 0 0 0
173 1 4.614580266494962 18.019661658389445 8.848383682588715 0 0 0
174 1 3.7093827546611764 16.740932988811235 6.61951629970832 0 0 0
175 1 6.424975290163073 16.74093298881106 6.61951629970826 0 0 0
176 1 5.519777778329249 15.46220431923283 4.390652918427849 0 0 0
177 1 8.235370313831227 15.462204319232663 4.390652918427799 0 0 0
178 1 7.330172801997322 14.183475649654424 2.1640941029010157 0 0 0
179 1 10.045765337499185 14.183475649654651 2.164094102900835 0 0 0
180 1 9.140567825665128 12.90474698007634 0.00519775612963745 0 0 0
181 1 11.856160361169852 12.904746980073295 0.00519775613089854 0 0 0
182 1 0.9937902191561444 24.413305006279945 15.535027054667793 0 0 0
1633 1 19.09772340586723 0.11747560922698597 22.22175915264637 0 0 0
184 1 2.8041852428220118 23.134576336700043 13.306136997372354 0 0 0
185 1 1.8989877309926697 21.855847667124596 11.077256295187414 0 0 0
186 1 4.614580266488446 21.855847667120194 11.077256295186002 0 0 0
187 1 3.7093827546606803 20.577118997546116 8.848383682588636 0 0 0
188 1 6.424975290156339 20.577118997541145 8.848383682586606 0 0 0
189 1 5.519777778328787 19.2983903279677 6.619516299708156 0 0 0
190 1 8.235370313825571 19.298390327963098 6.619516299705945 0 0 0
191 1 7.3301728019969765 18.019661658389346 4.390652918427695 0 0 0
192 1 10.045765337495624 18.019661658386 4.390652918425791 0 0 0
193 1 9.14056782566526 16.740932988811135 2.1640941029008873 0 0 0
194 1 11.856160361166332 16.74093298880934 2.164094102899913 0 0 0
195 1 10.95096284933354 15.462204319232677 0.005197756129703118 0 0 0
196 1 13.6665553848348 15.462204319232423 0.005197756128370267 0 0 0
197 1 0.9937902191506953 28.24949101501386 17.763926662845883 0 0 0
7381 1 32.675703132103344 19.298390184148907 11.077256234713015 0 0 0
199 1 2.8041852427514256 26.970762345398274 15.535027054668848 0 0 0
200 1 1.8989877309851162 25.69203367585553 13.306136997371953 0 0 0
201 1 4.614580266376322 25.69203367578861 13.306136997356367 0 0 0
202 1 3.709382754649819 24.413305006274772 11.077256295184995 0 0 0
203 1 6.42497529000936 24.413305006180376 11.077256295150953 0 0 0
204 1 5.519777778316602 23.134576336694792 8.84838368258486 0 0 0
205 1 8.235370313675134 23.13457633658911 8.848383682536562 0 0 0
206 1 7.330172801985637 21.85584766711617 6.61951629970367 0 0 0
207 1 10.045765337369337 21.855847667018057 6.619516299652073 0 0 0
208 1 9.140567825656653 20.577118997539188 4.390652918423351 0 0 0
209 1 11.856160361081693 20.577118997465103 4.390652918379281 0 0 0
210 1 10.950962849330685 19.298390327964672 2.164094102897973 0 0 0
211 1 13.666555384804905 19.298390327930893 2.1640941028724914 0 0 0
212 1 12.761357873000607 18.01966165838863 0.005197756127629195 0 0 0
213 1 15.476950408489653 18.01966165837061 0.005197756106602166 0 0 0
214 1 2.804185242669335 30.806948354103646 17.763926662881495 0 0 0
215 1 1.8989877308830183 29.52821968454547 15.535027054669314 0 0 0
216 1 4.614580264936915 29.528219683820666 15.535027054689468 0 0 0
217 1 3.709382754485701 28.249491014924363 13.306136997347776 0 0 0
218 1 6.424975287877146 28.249491013720505 13.30613699701474 0 0 0
219 1 5.519777778085701 26.970762345298713 11.077256295129638 0 0 0
220 1 8.235370310899993 26.970762343612442 11.077256294443924 0 0 0
221 1 7.330172801730663 25.6920336756906 8.848383682500545 0 0 0
222 1 10.045765334549364 25.692033673812183 8.848383681543442 0 0 0
223 1 9.140567825419897 24.41330500610796 6.619516299605071 0 0 0
224 1 11.856160358708712 24.413305004352292 6.619516298587459 0 0 0
225 1 10.950962849148894 23.134576336556496 4.390652918328374 0 0 0
226 1 13.666555383197698 23.134576335205452 4.390652917455745 0 0 0
227 1 12.76135787293862 21.855847667051876 2.164094102831291 0 0 0
228 1 15.476950407898949 21.855847666422182 2.164094102323679 0 0 0
229 1 14.57175289664452 20.5771189975213 0.005197756082572351 0 0 0
230 1 17.287345431862217 20.577118997095475 0.00519775562067767 0 0 0
231 1 8.235370278145064 30.80694833527191 13.306136991262878 0 0 0
232 1 7.330172797628195 29.528219682249603 11.0772562940795 0 0 0
233 1 10.045765291992113 29.52821965796497 11.07725628294609 0 0 0
234 1 9.140567820936615 28.24949101219337 8.84838368092646 0 0 0
235 1 11.85616031551323 28.249490985085114 8.848383665530022 0 0 0
236 1 10.95096284499159 26.970762342539313 6.619516297781832 0 0 0
237 1 13.666555346765453 26.970762316962645 6.6195162814051285 0 0 0
238 1 12.761357869716958 25.69203367337919 4.390652916573124 0 0 0
239 1 15.476950383003906 25.692033653416157 4.390652902532325 0 0 0
240 1 14.571752895445119 24.413305004943272 2.1640941015565467 0 0 0
241 1 17.287345422332166 24.41330499530953 2.1640940932888544 0 0 0
242 1 16.382147919757355 23.134576336168156 0.005197755212222377 0 0 0
243 1 19.09774045039205 23.134576328546707 0.0051977471967460335 0 0 0
244 1 10.95096278057118 30.80694831595072 8.848383657079056 0 0 0
245 1 13.666554828882903 30.806948012050487 8.848383464885027 0 0 0
246 1 12.761357809994331 29.528219645183203 6.619516270242329 0 0 0
247 1 15.476949944775019 29.52821935463079 6.619516064419303 0 0 0
248 1 14.571752848750316 28.24949098072417 4.390652890026472 0 0 0
249 1 17.287345121132464 28.24949075251002 4.390652714379915 0 0 0
250 1 16.3821479006252 26.97076232530808 2.1640940817158625 0 0 0
251 1 19.097740329050552 26.970762208675655 2.164093975935878 0 0 0
252 1 18.19254293318981 25.692033666401354 0.005197741293133798 0 0 0
253 1 20.908135406027597 25.69203356447904 0.0051976349717808845 0 0 0
254 1 19.097737643135854 30.806946094666483 4.39065097643087 0 0 0
255 1 18.192542695132037 29.528219448590512 2.1640938419010562 0 0 0
256 1 20.908134248766697 29.528218390161992 2.164092834042927 0 0 0
257 1 20.00293781328343 28.249490882958018 0.005197564135750893 0 0 0
258 1 22.718529760554695 28.249489895241013 0.005196521481069655 0 0 0
259 1 24.528920053983292 30.806940307413285 0.005188593640978871 0 0 0
260 1 0.9937902191880524 1.3961889538831205 6.619516299697191 0 0 0
933 1 16.382146847262813 0.11746111660023928 4.390652348907369 0 0 0
7370 1 32.67570313330661 15.462204319779087 8.848383682109105 0 0 0
263 1 0.9937902191748976 5.232374962614115 8.848383682583618 0 0 0
1640 1 21.81323602447965 0.11756416932332314 17.76394261156748 0 0 0
265 1 2.8041852428288236 3.9536462930276883 6.619516299707872 0 0 0
266 1 1.8989877309950323 2.6749176234495855 4.390652918427098 0 0 0
267 1 4.614580266492983 2.674917623450387 4.3906529184273655 0 0 0
268 1 3.709382754658828 1.396188953871457 2.1640941029009086 0 0 0
269 1 6.424975290174187 1.3961889538608485 2.164094102901287 0 0 0
5352 1 29.9600433121065 30.806732486312217 22.221853041262925 0 0 0
5322 1 27.244362752660557 30.806656365927985 17.76396580592026 0 0 0
272 1 0.9937902191654008 9.068560971344828 11.07725629518592 0 0 0
5315 1 24.528863144586957 30.806860801553928 22.221795540020793 0 0 0
274 1 2.804185242827835 7.789832301762802 8.848383682588587 0 0 0
275 1 1.8989877309941818 6.511103632184581 6.619516299707931 0 0 0
276 1 4.614580266495536 6.511103632183843 6.619516299708391 0 0 0
277 1 3.709382754661344 5.2323749626055704 4.3906529184278815 0 0 0
278 1 6.424975290160949 5.232374962607208 4.390652918427388 0 0 0
279 1 5.519777778327087 3.953646293028616 2.16409410290098 0 0 0
280 1 8.235370313840063 3.953646293021093 2.1640941029026792 0 0 0
281 1 7.330172801992354 2.6749176234504852 0.0051977561350451005 0 0 0
282 1 10.045765337737466 2.674917623276346 0.005197756159042767 0 0 0
283 1 0.9937902191606748 12.904746980077222 13.306136997372752 0 0 0
1401 1 29.9600890304431 0.11754073938142251 4.390593533876973 0 0 0
285 1 2.804185242827399 11.62601831049777 11.077256295187464 0 0 0
286 1 1.8989877309935728 10.347289640919497 8.848383682588665 0 0 0
287 1 4.614580266495231 10.347289640919232 8.848383682588796 0 0 0
288 1 3.709382754661231 9.068560971340826 6.61951629970832 0 0 0
289 1 6.424975290163521 9.068560971340638 6.619516299708407 0 0 0
290 1 5.519777778329324 7.789832301762351 4.390652918427914 0 0 0
291 1 8.235370313829115 7.78983230176398 4.390652918427388 0 0 0
292 1 7.330172801995328 6.511103632185517 2.1640941029009606 0 0 0
293 1 10.045765337512181 6.511103632176517 2.1640941029011422 0 0 0
294 1 9.140567825663492 5.232374962609964 0.00519775613493825 0 0 0
295 1 11.856160361404344 5.232374962402164 0.005197756152328643 0 0 0
296 1 0.9937902191592696 16.74093298881141 15.535027054667744 0 0 0
1400 1 27.244494534659076 0.11751703200270135 4.390609728032816 0 0 0
298 1 2.804185242827171 15.462204319232846 13.306136997372983 0 0 0
299 1 1.898987730993258 14.183475649654529 11.077256295187475 0 0 0
300 1 4.614580266495184 14.183475649654396 11.07725629518749 0 0 0
301 1 3.7093827546612057 12.904746980076032 8.848383682588802 0 0 0
302 1 6.424975290163243 12.904746980075998 8.84838368258879 0 0 0
303 1 5.519777778329261 11.626018310497615 6.619516299708332 0 0 0
304 1 8.235370313831542 11.626018310497372 6.619516299708407 0 0 0
305 1 7.330172801997356 10.347289640919161 4.39065291842792 0 0 0
306 1 10.045765337497139 10.347289640921103 4.390652918426879 0 0 0
307 1 9.140567825663785 9.068560971342468 2.1640941029008567 0 0 0
308 1 11.856160361190515 9.068560971321975 2.1640941028993725 0 0 0
309 1 10.950962849342767 7.789832301761389 0.005197756135443239 0 0 0
310 1 13.666555385019175 7.789832301489938 0.005197756136046191 0 0 0
311 1 0.9937902191589498 20.57711899754639 17.763926662844412 0 0 0
1381 1 24.528849711485538 0.1175756569237719 8.848318564978198 0 0 0
313 1 2.8041852428262666 19.298390327967425 15.53502705466776 0 0 0
314 1 1.8989877309930365 18.019661658389605 13.306136997372983 0 0 0
315 1 4.61458026649383 18.019661658388543 13.306136997372823 0 0 0
316 1 3.709382754661078 16.740932988811156 11.077256295187475 0 0 0
317 1 6.424975290161756 16.740932988809888 11.077256295187157 0 0 0
318 1 5.519777778329144 15.46220431923274 8.848383682588778 0 0 0
319 1 8.23537031383011 15.462204319231606 8.848383682588375 0 0 0
320 1 7.330172801997251 14.183475649654355 6.619516299708309 0 0 0
321 1 10.045765337498855 14.183475649653136 6.619516299708183 0 0 0
322 1 9.140567825665318 12.904746980075881 4.390652918427908 0 0 0
323 1 11.85616036116475 12.904746980080494 4.390652918425126 0 0 0
324 1 10.950962849333095 11.62601831049878 2.1640941028998215 0 0 0
325 1 13.666555384865843 11.626018310452306 2.1640941029201484 0 0 0
326 1 12.761357873030546 10.347289640883922 0.005197756141239158 0 0 0
327 1 15.47695040834097 10.347289641076214 0.005197755949105062 0 0 0
328 1 0.9937902191586209 24.413305006281394 19.99283564894404 0 0 0
1380 1 21.813286667975827 0.11751454323045817 8.848355321284647 0 0 0
330 1 2.8041852428231873 23.134576336700853 17.763926662845098 0 0 0
331 1 1.8989877309913628 21.85584766712377 15.53502705466777 0 0 0
332 1 4.614580266470329 21.855847667107803 15.535027054668062 0 0 0
333 1 3.7093827546583187 20.577118997544417 13.306136997372649 0 0 0
334 1 6.424975290126938 20.57711899751833 13.30613699736812 0 0 0
335 1 5.519777778325761 19.298390327965315 11.077256295186723 0 0 0
336 1 8.235370313791922 19.298390327933962 11.077256295177932 0 0 0
337 1 7.33017280199407 18.01966165838681 8.848383682587773 0 0 0
338 1 10.045765337467524 18.019661658358075 8.848383682577504 0 0 0
339 1 9.140567825663071 16.740932988808837 6.619516299707341 0 0 0
340 1 11.856160361148042 16.74093298879035 6.619516299698944 0 0 0
341 1 10.950962849331859 15.462204319231976 4.3906529184268965 0 0 0
342 1 13.666555384832293 15.46220431921492 4.390652918425152 0 0 0
343 1 12.761357873003936 14.183475649649642 2.164094102902282 0 0 0
344 1 15.476950408486296 14.183475649679334 2.1640941028886997 0 0 0
345 1 14.571752896660833 12.904746980084743 0.005197756119029112 0 0 0
346 1 17.287345432139883 12.904746980105797 0.005197756098459711 0 0 0
347 1 0.9937902191572512 28.249491015016734 22.22175245747742 0 0 0
1364 1 16.382144615019257 0.11746288580065858 13.306136557278748 0 0 0
349 1 2.8041852428151555 26.970762345432217 19.99283564894689 0 0 0
350 1 1.8989877309873795 25.69203367585691 17.76392666284552 0 0 0
351 1 4.614580266401267 25.692033675805323 17.763926662862975 0 0 0
352 1 3.709382754614863 24.41330500625369 15.535027054668396 0 0 0
353 1 6.424975289591202 24.4133050059058 15.535027054674853 0 0 0
354 1 5.519777778258635 23.1345763366551 13.306136997363382 0 0 0
355 1 8.235370313040574 23.134576336114932 13.306136997256429 0 0 0
356 1 7.330172801912853 21.855847667061234 11.077256295167315 0 0 0
357 1 10.045765336650947 21.85584766641656 11.077256294967755 0 0 0
358 1 9.140567825587425 20.577118997480632 8.848383682562202 0 0 0
359 1 11.856160360480258 20.57711899688934 8.848383682331434 0 0 0
360 1 10.950962849276596 19.298390327913133 6.619516299682647 0 0 0
361 1 13.66655538442435 19.29839032750522 6.619516299500215 0 0 0
362 1 12.761357872971422 18.019661658354828 4.390652918409823 0 0 0
363 1 15.476950408333657 18.01966165812893 4.390652918299498 0 0 0
364 1 14.57175289665707 16.74093298879441 2.164094102889696 0 0 0
365 1 17.28734543217888 16.740932988817164 2.164094102900501 0 0 0
366 1 16.382147920336475 15.462204319238085 0.005197756129131326 0 0 0
367 1 19.097740455842764 15.462204319222346 0.005197756129983597 0 0 0
368 1 2.8041852428019127 30.806948354162984 22.221752457484875 0 0 0
369 1 1.8989877309764955 29.52821968458856 19.9928356489475 0 0 0
370 1 4.614580266251479 29.528219684476518 19.992835649009 0 0 0
371 1 3.7093827545316542 28.249491014950472 17.763926662872507 0 0 0
372 1 6.424975288273404 28.249491013977835 17.763926663243428 0 0 0
373 1 5.519777777321286 26.97076234486067 15.535027054681185 0 0 0
374 1 8.235370303289255 26.97076233883595 15.53502705478927 0 0 0
375 1 7.330172800552598 25.6920336749209 13.306136997154344 0 0 0
376 1 10.045765323506833 25.69203366590001 13.306136995137999 0 0 0
377 1 9.14056782395724 24.413305005051264 11.077256294751935 0 0 0
378 1 11.85616034628253 24.41330499431398 11.077256291096505 0 0 0
379 1 10.950962847763948 23.134576335430513 8.848383682021964 0 0 0
380 1 13.666555372772505 23.134576325523867 8.848383677823117 0 0 0
381 1 12.761357871851963 21.855847666048923 6.619516299161211 0 0 0
382 1 15.476950401205478 21.855847659146168 6.619516295818254 0 0 0
383 1 14.5717528960478 20.577118996863234 4.3906529180388185 0 0 0
384 1 17.287345429035543 20.577118992691275 4.390652915909956 0 0 0
385 1 16.382147920083824 19.298390327577454 2.164094102653363 0 0 0
386 1 19.097740455947267 19.298390327852122 2.164094102835587 0 0 0
387 1 18.1925429440361 18.019661658445152 0.005197756153983596 0 0 0
388 1 20.908135479489477 18.019661658417174 0.005197756115399737 0 0 0
389 1 8.235370282435335 30.806948338025858 17.7639266696218 0 0 0
390 1 7.330172784505063 29.52821967515072 15.535027054885921 0 0 0
391 1 10.045765187091297 29.528219595347 15.535027056135878 0 0 0
392 1 9.14056780164908 28.249491000246138 13.30613699341726 0 0 0
393 1 11.856160166686145 28.249490883266635 13.306136964462757 0 0 0
394 1 10.950962821161646 26.970762326126145 11.077256287566241 0 0 0
395 1 13.666555179731212 26.970762186931122 11.07725623565361 0 0 0
396 1 12.761357847156189 25.692033655776186 8.848383672740132 0 0 0
397 1 15.476950241909284 25.692033526455518 8.848383613327348 0 0 0
398 1 14.571752877693255 24.413304989127248 6.619516290185837 0 0 0
399 1 17.287345330191126 24.413304897565354 6.619516242234809 0 0 0
400 1 16.382147909954945 23.134576325674118 4.3906529116203 0 0 0
401 1 19.09774041039227 23.134576266958394 4.390652879718155 0 0 0
402 1 18.192542939650572 21.855847660366127 2.1640940983617636 0 0 0
403 1 20.908135479459485 21.85584766201206 2.164094099766652 0 0 0
404 1 20.002937968139545 20.57711899830767 0.00519775639410135 0 0 0
405 1 22.718530503142464 20.577118998444043 0.005197756054430819 0 0 0
406 1 13.666553359975781 30.806947055604386 13.30613664284999 0 0 0
407 1 12.761357508816895 29.52821944823883 11.077256191276645 0 0 0
408 1 15.476948302296728 29.528218123424963 11.077255651974863 0 0 0
409 1 14.571752561786683 28.249490766160697 8.848383548417344 0 0 0
410 1 17.28734371157035 28.249489525511763 8.848382932392813 0 0 0
411 1 16.3821476742861 26.970762131116935 6.619516169470708 0 0 0
412 1 19.097739380627033 26.970761224175938 6.619515656933488 0 0 0
413 1 18.192542807629636 25.692033535388177 4.390652824247682 0 0 0
414 1 20.908134982391374 25.692032925889407 4.390652470194396 0 0 0
415 1 20.00293790985975 24.41330491626683 2.164094038342222 0 0 0
416 1 22.71853047692282 24.413304897043364 2.1640940315567447 0 0 0
417 1 21.81333299564502 23.13457634135418 0.005197755680452192 0 0 0
418 1 24.52892552895134 23.134576349252328 0.005197754526324473 0 0 0
419 1 19.097727970803028 30.80693797252617 8.848378002266337 0 0 0
420 1 18.192540567414863 29.52821769933223 6.619514974948255 0 0 0
421 1 20.908127355061886 29.528211380832236 6.619511152501773 0 0 0
422 1 20.002936619733642 28.2494896638442 4.390651933568396 0 0 0
423 1 22.71852655925729 28.249485229168425 4.390649168859971 0 0 0
424 1 21.813332414626398 26.970761452199092 2.1640934125040237 0 0 0
425 1 24.52892504291379 26.970760923800352 2.1640931148221285 0 0 0
426 1 23.62372802231391 25.692033631473933 0.005197683835463642 0 0 0
427 1 26.339320570480595 25.692033714925216 0.0051976830855615065 0 0 0
428 1 24.52890370965085 30.806917713881987 4.390631247551934 0 0 0
429 1 23.623723844194323 29.528213337225242 2.16408875182727 0 0 0
430 1 26.339315983234457 29.528208155011466 2.164085484957566 0 0 0
431 1 25.434122673994533 28.249489709559708 0.005196459581559462 0 0 0
432 1 28.149715431720054 28.249489801076425 0.005196295158287215 0 0 0
433 1 0.9937902194220405 1.3961889539881374 11.07725629511942 0 0 0
1186 1 24.52890553142515 0.11749373297079028 4.3906265307758 0 0 0
5314 1 21.813297958853422 30.80691163434066 22.221771979891173 0 0 0
436 1 0.9937902192680179 5.232374962665181 13.306136997351262 0 0 0
7349 1 32.67570304709614 3.953649936505818 2.164091792196396 0 0 0
438 1 2.8041852428406653 3.9536462930335143 11.07725629518436 0 0 0