LAMMPS data file via write_data, version 2 Aug 2023, timestep = 1990, units = metal

14401 atoms
3 atom types

0.08859245506480032 65.26281381163554 xlo xhi
0.11745208341310327 61.49644462493452 ylo yhi
-22.325732186138648 75.68493196171809 zlo zhi

Masses

1 183.84
2 1.008
3 4.0026

Atoms # atomic

1 1 0.9937786673826826 28.24946503332122 0.00536064487676042 0 0 0
1548 1 27.24412751931884 0.11825106947549813 8.848824437393269 0 0 0
3 1 0.9937864437659504 20.577109961501545 0.005373173111244937 0 0 0
4 1 0.9937847833553525 24.413288726636818 2.164270742141595 0 0 0
1533 1 24.528637286996595 0.11788249183172184 13.306562872838514 0 0 0
6 1 2.804171363133049 23.134560135927018 0.00536961066689389 0 0 0
7 1 0.993783540919222 28.24946612861337 4.390835676240413 0 0 0
1532 1 21.813068224657865 0.11776012455071339 13.306478031284817 0 0 0
9 1 2.804164710859377 26.97073743437286 2.1642672665661356 0 0 0
10 1 1.8989728372798946 25.692013075684603 0.005365702040783566 0 0 0
11 1 4.614547910999955 25.692005276639577 0.005363333647065133 0 0 0
12 1 2.80415684209325 30.806915029150012 4.390833436836306 0 0 0
13 1 1.8989689942613177 29.528190252163405 2.164264157993355 0 0 0
14 1 4.614532633245415 29.528180717032804 2.1642618032820717 0 0 0
15 1 3.709345095425229 28.24945854544875 0.005358845411536567 0 0 0
16 1 6.4249105913514075 28.249443007281617 0.005353581140219977 0 0 0
17 1 8.235251647968859 30.806871206141523 0.005339152847605735 0 0 0
18 1 0.9937941575671108 12.904748246119082 0.005373464302490801 0 0 0
19 1 0.9937901698934785 16.740929146905362 2.164274809555766 0 0 0
5351 1 27.244466046896317 30.806759677487555 22.221989091255775 0 0 0
21 1 2.8041829982077857 15.462200911319481 0.005374492509052179 0 0 0
22 1 0.993788210848022 20.5771091920459 4.390838966593798 0 0 0
7909 1 32.6757012394054 15.462223492861177 22.221876762811192 0 0 0
24 1 2.8041797426318116 19.298381689223564 2.1642740368716793 0 0 0
25 1 1.8989847380535658 18.019655524282516 0.005374715728380219 0 0 0
26 1 4.614572010807226 18.01965272110314 0.005373139201970591 0 0 0
27 1 0.9937857147053704 24.413287867155706 6.619709107342085 0 0 0
5323 1 29.960075558357683 30.80673164380036 17.764260486103936 0 0 0
29 1 2.8041751133678505 23.13456029454962 4.390837908805239 0 0 0
30 1 1.8989815732444122 21.855835566746833 2.1642728339650392 0 0 0
31 1 4.614565542330318 21.855831180408583 2.164271657519864 0 0 0
32 1 3.7093718108148046 20.577106422766374 0.00537217848024311 0 0 0
33 1 6.424956740823516 20.57710011374307 0.005369127088149893 0 0 0
34 1 0.9937827566152577 28.249466710829864 8.848583494476435 0 0 0
8101 1 32.67564854432399 0.11790008014731512 17.764499167352017 0 0 0
36 1 2.8041679450928148 26.970737922045913 6.619708771817613 0 0 0
37 1 1.8989776364030422 25.692013570238828 4.390836837284386 0 0 0
38 1 4.614555400883067 25.692007421690597 4.390835939989369 0 0 0
39 1 3.7093644973250037 24.41328430232482 2.1642698014660007 0 0 0
40 1 6.424943506424787 24.413274759299874 2.1642671563083695 0 0 0
41 1 5.5197525597763155 23.134552375335808 0.005366867078817509 0 0 0
42 1 8.235333008919548 23.134539966416416 0.005361884601166998 0 0 0
43 1 2.804158728371086 30.8069170325335 8.848584489610982 0 0 0
44 1 1.898972318419196 29.528191566472195 6.619708958789754 0 0 0
45 1 4.61454082764026 29.52818390855751 6.619708411382389 0 0 0
46 1 3.7093544276005668 28.249460954180595 4.390834660538098 0 0 0
47 1 6.424924476946865 28.24944821340967 4.390832690879178 0 0 0
48 1 5.51973744596483 26.97072712106281 2.164264644953953 0 0 0
49 1 8.235308641234033 26.97070937416692 2.1642599566251657 0 0 0
50 1 7.330122250440235 25.691990576662604 0.00535814756831929 0 0 0
51 1 10.045695383279051 25.691968586969164 0.005350291442514361 0 0 0
52 1 7.330094765664454 29.52816164845268 2.1642568803250746 0 0 0
53 1 10.045653741010359 29.528132078723612 2.1642489066672055 0 0 0
54 1 9.140474158872047 28.249417759897824 0.0053447853986273814 0 0 0
55 1 11.856036272177741 28.249381708643874 0.005332543769877441 0 0 0
56 1 13.666342598598181 30.806777738643998 0.005307432268098425 0 0 0
57 1 0.9938050379113054 5.232392164301549 0.005362158196996872 0 0 0
58 1 0.9937966087462121 9.068569088191124 2.164271381893942 0 0 0
5261 1 29.96006124194813 30.806714121023425 13.306520827149962 0 0 0
60 1 2.8041842129906196 7.789842866400717 0.005366471143804138 0 0 0
61 1 0.9937921636364947 12.90474883050669 4.390839159121244 0 0 0
5157 1 27.2443822764796 30.806614512095567 8.848762750605061 0 0 0
63 1 2.8041832964950073 11.626021184189705 2.164272867688537 0 0 0
64 1 1.8989908562667768 10.347294808138093 0.005370601722221063 0 0 0
65 1 4.614571690738246 10.3472964531471 0.005368960281207511 0 0 0
66 1 0.9937900658597391 16.740928999343833 6.619709688646339 0 0 0
1521 1 19.09756046508446 0.11762397407129299 17.764197652971163 0 0 0
68 1 2.804182032071971 15.462201717699058 4.390839314216475 0 0 0
69 1 1.8989874034055687 14.183474787523824 2.1642743511993627 0 0 0
70 1 4.614573997818533 14.1834746963962 2.1642732533136915 0 0 0
71 1 3.7093791660625546 12.904747655384716 0.005372510620637337 0 0 0
72 1 6.424963467596395 12.904750579332712 0.0053696576425987085 0 0 0
73 1 0.9937878882513007 20.577108681666783 8.84858194957995 0 0 0
1520 1 16.38199866339653 0.11757356136218533 17.76415955038915 0 0 0
75 1 2.804179509086575 19.298381256196002 6.619709477341615 0 0 0
76 1 1.8989851519392484 18.019655456871906 4.39083943843711 0 0 0
77 1 4.614572039605213 18.019653838931262 4.390838891064997 0 0 0
78 1 3.70937773121924 16.740927756785236 2.1642742000445714 0 0 0
79 1 6.424964703988238 16.74092659354957 2.164272452660748 0 0 0
80 1 5.5197697882235985 15.462200457165423 0.005372307150030876 0 0 0
81 1 8.235355171831735 15.46220181149438 0.0053684584870818085 0 0 0
82 1 0.9937851599881187 24.41328842481727 11.077456326371191 0 0 0
5141 1 21.813184525353233 30.806731546425873 13.306450353722767 0 0 0
84 1 2.804174792934095 23.134559894793334 8.848582074961413 0 0 0
85 1 1.8989820737299528 21.855834653675434 6.619709303024781 0 0 0
86 1 4.614566183676984 21.85583123095299 6.619709101423828 0 0 0
87 1 3.7093736760440756 20.57710693430001 4.3908386663651005 0 0 0
88 1 6.424958890808201 20.577102536442034 4.390837686412544 0 0 0
89 1 5.519766175124174 19.298378350596867 2.164272608576793 0 0 0
90 1 8.235351653670804 19.298373642485352 2.164270000676997 0 0 0
91 1 7.330158216709401 18.019649575068964 0.005369763559479554 0 0 0
92 1 10.04574289781448 18.01964658981394 0.005364868284675019 0 0 0
93 1 0.9937821012844863 28.249469514365394 13.306334772810663 0 0 0
5012 1 29.95995589102111 30.806190885352674 4.391005395098041 0 0 0
95 1 2.8041679645832076 26.970739071296094 11.077457492670785 0 0 0
96 1 1.8989774423059071 25.692013382343383 8.848582537168031 0 0 0
97 1 4.614556347948679 25.69200804910118 8.848582644256544 0 0 0
98 1 3.7093665552164565 24.413284366185895 6.619708915139272 0 0 0
99 1 6.424947018482259 24.413276790360577 6.6197086420486775 0 0 0
100 1 5.519757353820678 23.13455459688726 4.390837027283103 0 0 0
101 1 8.235339022965372 23.13454504711714 4.390835321923737 0 0 0
102 1 7.33014885550267 21.85582345195846 2.1642690542065774 0 0 0
103 1 10.045731110979853 21.85581249820926 2.1642651872311585 0 0 0
104 1 9.140540496941453 20.577091645240692 0.005364319949521531 0 0 0
105 1 11.85612310253935 20.577081379457905 0.0053580825031086625 0 0 0
1513 1 13.666469850041176 0.1175131040618993 22.22189705947371 0 0 0
107 1 1.8989717131020327 29.528193488853706 11.077459178683961 0 0 0
108 1 4.6145429489799525 29.5281865337182 11.07745982834137 0 0 0
109 1 3.709356178169673 28.249462112325187 8.848583345439561 0 0 0
110 1 6.424929330408102 28.24945148177718 8.84858403628675 0 0 0
111 1 5.519743424409141 26.970729668230625 6.61970848617535 0 0 0
112 1 8.235317966616023 26.970715459343847 6.619708018275284 0 0 0
113 1 7.33013209569283 25.691995755939168 4.390834113372169 0 0 0
114 1 10.04570787508636 25.69197796255551 4.39083129091632 0 0 0
115 1 9.140521480850646 24.41325974498253 2.1642628659393646 0 0 0
116 1 11.856098436812665 24.41323902897023 2.1642571583464716 0 0 0
117 1 10.950912352483233 23.13452302983629 0.005355021338634445 0 0 0
118 1 13.66649137626136 23.134501526473105 0.005346743350118059 0 0 0
119 1 7.330108102747774 29.528168608034505 6.619707903952762 0 0 0
120 1 10.045673648812071 29.528144971047062 6.61970699858963 0 0 0
121 1 9.140492650357471 28.24942748070647 4.390829516657871 0 0 0
122 1 11.856059402950212 28.249397633899942 4.390825009485517 0 0 0
123 1 10.95087821540137 26.97068329816318 2.1642530910098956 0 0 0
124 1 13.666446966793933 26.97064822171225 2.164244593706083 0 0 0
125 1 12.761267972927667 25.69193883683314 0.005340257764764701 0 0 0
126 1 15.47684215809668 25.6919012956038 0.005329222813706109 0 0 0
127 1 10.950831024032103 30.806847656151767 4.3908222553141485 0 0 0
128 1 13.666381318586069 30.806801228107158 4.390817425224767 0 0 0
129 1 12.76120952696098 29.528090332269127 2.1642381157398902 0 0 0
130 1 15.476763313008336 29.528035109725725 2.164228883762058 0 0 0
131 1 14.571599025352263 28.249334436001092 0.0053185191547383 0 0 0
132 1 17.287165535924782 28.24927657266955 0.005307695199651706 0 0 0
133 1 16.381886727948782 30.806708957759465 0.0052961839254814696 0 0 0
134 1 0.993807739263536 1.396213377671914 2.1642628020760397 0 0 0
8343 1 32.67567913746406 0.11774155592109992 22.222171299546176 0 0 0
4820 1 29.959962007192466 30.80583562428396 0.005403568290759965 0 0 0
137 1 0.9937991506326324 5.232390452263307 4.3908365537854 0 0 0
7425 1 32.675700563122945 30.806744323965233 17.76425920917991 0 0 0
139 1 2.804180481399702 3.953664743871326 2.1642651711827345 0 0 0
140 1 1.8989954688692174 2.6749397807161355 0.005356870903430841 0 0 0
141 1 4.614553375436418 2.6749430766577325 0.00535417168877142 0 0 0
142 1 0.993794490846176 9.068569511584673 6.619709352942414 0 0 0
1512 1 10.950898536731962 0.11749309086044946 22.22187952448398 0 0 0
144 1 2.8041818746435 7.789842388038962 4.3908369867609025 0 0 0
145 1 1.8989912632251513 6.511116283073141 2.164268731610792 0 0 0
146 1 4.6145641423843395 6.511119070991081 2.1642667751026687 0 0 0
147 1 3.7093723360751936 5.232392457578577 0.005361060455701496 0 0 0
148 1 6.424938928637397 5.232401106549822 0.005356794244826737 0 0 0
149 1 0.9937918849936281 12.90474909406823 8.84858197420554 0 0 0
7409 1 32.675700585030036 26.97059835808652 15.535297616629139 0 0 0
151 1 2.8041821364626176 11.626022260373555 6.619709241947489 0 0 0
152 1 1.8989881190710354 10.347295283108243 4.390838259696218 0 0 0
153 1 4.614570785623186 10.34729640228875 4.390837377503468 0 0 0
154 1 3.7093764264656226 9.06856895330763 2.1642704018970855 0 0 0
155 1 6.424954984252324 9.06857489575714 2.1642677308514773 0 0 0
156 1 5.519758882160015 7.7898476180698255 0.005363811793882809 0 0 0
157 1 8.235332257454232 7.789859726605063 0.005358385468826838 0 0 0
158 1 0.9937898704963581 16.740928952414052 11.077454808355206 0 0 0
1401 1 29.959685903417213 0.11879297026329994 4.390923250838083 0 0 0
160 1 2.8041815746412726 15.462201867498933 8.84858182004344 0 0 0
161 1 1.8989866589552746 14.183475445773528 6.619709575613488 0 0 0
162 1 4.61457269723875 14.183475626327008 6.619709236705469 0 0 0
163 1 3.7093776126428346 12.904748556655168 4.390838591120158 0 0 0
164 1 6.4249627694192215 12.904750618556891 4.390837530293704 0 0 0
165 1 5.519767178881829 11.626023318978833 2.1642711759554296 0 0 0
166 1 8.235349333972005 11.626030096944035 2.164268139962747 0 0 0
167 1 7.330151522455921 10.347303534053653 0.005365141619005477 0 0 0
168 1 10.045729547040052 10.347316614217352 0.0053590967861517555 0 0 0
169 1 0.9937876413655603 20.577109535533694 13.306330182161535 0 0 0
1400 1 27.24405842168881 0.11836659122436544 4.390892686095441 0 0 0
171 1 2.804179350249544 19.298381307047702 11.077454969418492 0 0 0
172 1 1.89898481203229 18.01965520976064 8.8485818151865 0 0 0
173 1 4.614571338823459 18.019653741908638 8.848581798017781 0 0 0
174 1 3.709376795182648 16.740928088761947 6.619709478451785 0 0 0
175 1 6.424963370698258 16.74092738690134 6.619709071789194 0 0 0
176 1 5.519768791332371 15.462201593676523 4.390838493311593 0 0 0
177 1 8.235354788219002 15.462202538501437 4.390837213294374 0 0 0
178 1 7.330159705618715 14.18347675050762 2.1642710603678617 0 0 0
179 1 10.045743559259982 14.183481898543809 2.1642677650348543 0 0 0
180 1 9.140546131273775 12.90475729237493 0.005365047965431172 0 0 0
181 1 11.856126933882146 12.90476849327719 0.005358742825684857 0 0 0
182 1 0.9937852416693428 24.41329101439866 15.53520877182244 0 0 0
7394 1 32.67570018248136 23.13446380162608 13.306373770901843 0 0 0
184 1 2.8041751180272505 23.13456131468862 13.306331255654484 0 0 0
185 1 1.8989817411424361 21.855834924112543 11.077455434461577 0 0 0
186 1 4.614566230490684 21.855831591610148 11.07745562118874 0 0 0
187 1 3.7093731669179126 20.57710657096887 8.848581851268229 0 0 0
188 1 6.424958481525299 20.577102669291687 8.848581972789866 0 0 0
189 1 5.519765594255983 19.2983787418143 6.619709187280227 0 0 0
190 1 8.235351393021183 19.29837523591339 6.61970874621257 0 0 0
191 1 7.330158461961108 18.019651718195878 4.390837753421231 0 0 0
192 1 10.04574394564851 18.019649444991696 4.390836181169235 0 0 0
193 1 9.140550376603043 16.740926090581173 2.164269695240596 0 0 0
194 1 11.856134518793361 16.74092705276573 2.164266021741043 0 0 0
195 1 10.950938823174198 15.462205358698911 0.00536315111883992 0 0 0
196 1 13.666521189828254 15.462211756492106 0.005356579271016191 0 0 0
197 1 0.9937829377943438 28.249474235046822 17.76409046140221 0 0 0
7381 1 32.675697627206254 19.298350861481783 11.077483707467781 0 0 0
199 1 2.804169626765821 26.97074269789722 15.535211223233043 0 0 0
200 1 1.8989775741048387 25.692015358484007 13.3063326937507 0 0 0
201 1 4.614557751319889 25.692010450728546 13.306333350798448 0 0 0
202 1 3.709366585414958 24.41328509448142 11.077456352792789 0 0 0
203 1 6.424948014561038 24.413278155029122 11.077457110324653 0 0 0
204 1 5.519757543418772 23.13455485763066 8.848582198537784 0 0 0
205 1 8.235340382164178 23.134546692129273 8.848582661451351 0 0 0
206 1 7.330150193301851 21.85582518856105 6.619708763339118 0 0 0
207 1 10.045733901023103 21.855816733064707 6.619708296790755 0 0 0
208 1 9.14054345073668 20.577096182551813 4.390836060498137 0 0 0
209 1 11.85612717640664 20.577088118098253 4.390834002458336 0 0 0
210 1 10.950935860142783 19.29836800109874 2.1642664127779185 0 0 0
211 1 13.666519184656112 19.298361875335964 2.1642621023326445 0 0 0
212 1 12.761326366373453 18.019644135785608 0.005358745985404006 0 0 0
213 1 15.476909537406224 18.019642621863213 0.005351723493315884 0 0 0
214 1 2.80416397647467 30.80692683801926 17.764094527428625 0 0 0
215 1 1.8989729648662146 29.528197907179305 15.535213782690239 0 0 0
216 1 4.614547255426456 29.528191780343615 15.535215398160382 0 0 0
217 1 3.7093576980629197 28.24946512128582 13.306335172506977 0 0 0
218 1 6.424932877509512 28.249455656805367 13.306337116959368 0 0 0
219 1 5.519744925479659 26.970731680881812 11.07745828777106 0 0 0
220 1 8.235321903729226 26.970719320299118 11.077460044065969 0 0 0
221 1 7.330135039550587 25.691998172822252 8.848583228527962 0 0 0
222 1 10.045713891618108 25.69198350294853 8.848584205587825 0 0 0
223 1 9.140527185942373 24.413264873201413 6.619708184714581 0 0 0
224 1 11.856107211840294 24.413248625740437 6.619707597161959 0 0 0
225 1 10.950919968715752 23.134531597171573 4.390832897752846 0 0 0
226 1 13.666500611279693 23.13451430541947 4.39083014566859 0 0 0
227 1 12.761312459388037 21.85579851249513 2.164260394651322 0 0 0
228 1 15.476893910088059 21.855781676945643 2.164255169937759 0 0 0
229 1 14.571705403671352 20.577069453252715 0.005350789910833477 0 0 0
230 1 17.2872888083066 20.57705597412017 0.005343036094041186 0 0 0
231 1 8.235297986032068 30.806896467885018 13.306343261619698 0 0 0
232 1 7.330113840318659 29.52817350365946 11.077461856542483 0 0 0
233 1 10.04568470224065 29.52815389098904 11.077464954938963 0 0 0
234 1 9.14050200228107 28.249434567443252 8.848585203746534 0 0 0
235 1 11.856074733585006 28.249410665834407 8.848586874823269 0 0 0
236 1 10.950892068714431 26.970694691451047 6.619707260598766 0 0 0
237 1 13.666466459047506 26.97066710162842 6.61970678925307 0 0 0
238 1 12.761283221770523 25.691953717305317 4.39082774930205 0 0 0
239 1 15.476859157076381 25.691922859824984 4.390824470413689 0 0 0
240 1 14.571675319117293 24.413212532700676 2.164250610158005 0 0 0
241 1 17.28725390177872 24.413180350890805 2.164244423849872 0 0 0
242 1 16.38207182998881 23.134475608628108 0.005337825248634274 0 0 0
243 1 19.09765549955075 23.13444595562674 0.005329506640375089 0 0 0
244 1 10.95085238525945 30.80686265952138 8.84858819951916 0 0 0
245 1 13.66641411226479 30.80682656894894 8.848593909473525 0 0 0
246 1 12.761237856768176 29.52811179872234 6.619706353050595 0 0 0
247 1 15.476801805571576 29.528068675861142 6.619710591810924 0 0 0
248 1 14.571625331771505 28.249357808638027 4.390820834047635 0 0 0
249 1 17.287192027066524 28.24930764359275 4.39082197773702 0 0 0
250 1 16.38201659665169 26.970603790453843 2.1642367185980396 0 0 0
251 1 19.097589439736428 26.97055011665748 2.1642342561765373 0 0 0
252 1 18.192420507668636 25.691857074498934 0.005319653641343403 0 0 0
253 1 20.908005028646894 25.69180694355486 0.005315011066679337 0 0 0
254 1 19.097479505391824 30.806660579111817 4.39084653167893 0 0 0
255 1 18.19231768661015 29.527964695909176 2.164230125137897 0 0 0
256 1 20.90788054383844 29.527875706575497 2.164248957343223 0 0 0
257 1 20.002739400996624 28.249207284846666 0.005307164052386323 0 0 0
258 1 22.718327640357558 28.24911905870398 0.005321399488607252 0 0 0
259 1 24.528600652743016 30.80631544251439 0.005360172134098119 0 0 0
260 1 0.9938004547789041 1.396210112107198 6.6197102211198855 0 0 0
1381 1 24.52856440976021 0.1179834041965151 8.848732262183638 0 0 0
7370 1 32.675693394688366 15.46226814247855 8.848604670598911 0 0 0
263 1 0.9937966979216379 5.232389375052962 8.848583399696933 0 0 0
1380 1 21.813020438434183 0.11781030143456661 8.848662120344729 0 0 0
265 1 2.804178543606206 3.9536636986025027 6.6197087222585855 0 0 0
266 1 1.8989899548201938 2.6749374393996286 4.3908350280131385 0 0 0
267 1 4.614553475638698 2.6749409306706013 4.390832601760462 0 0 0
268 1 3.709362970299875 1.3962135898193797 2.164260574801558 0 0 0
269 1 6.42491907341616 1.3962229125907017 2.1642557495500374 0 0 0
5352 1 29.960087465612563 30.806754355909245 22.221995727766682 0 0 0
5322 1 27.244448962077428 30.80672703794711 17.76425058549634 0 0 0
272 1 0.9937937265591531 9.068568772358619 11.07745616565356 0 0 0
5315 1 24.528849393769814 30.80677584019261 22.221974058080455 0 0 0
274 1 2.8041811363650875 7.789842654923407 8.848582321231122 0 0 0
275 1 1.8989887769340545 6.511116097922978 6.619709035749772 0 0 0
276 1 4.614564230949208 6.511118921042575 6.61970824614949 0 0 0
277 1 3.709370756585447 5.232391162333913 4.390835214430247 0 0 0
278 1 6.424941054737905 5.232399028158035 4.390832743446315 0 0 0
279 1 5.519745029168204 3.953670942948122 2.1642618783165175 0 0 0
280 1 8.235309274895897 3.9536850844889773 2.164256342081733 0 0 0
281 1 7.330110627722644 2.674955849673115 0.005348266064561059 0 0 0
282 1 10.045665246783543 2.6749794662726423 0.005339039452002433 0 0 0
283 1 0.9937916552169335 12.904748270125522 13.306330067762547 0 0 0
1365 1 19.097514217604186 0.11766671802463691 13.306419408441236 0 0 0
285 1 2.8041819419802976 11.626022031727823 11.07745543872268 0 0 0
286 1 1.898987539506231 10.34729569412907 8.848582117919744 0 0 0
287 1 4.614570330138927 10.347297046584536 8.848581994530992 0 0 0
288 1 3.7093754792789473 9.068569706877254 6.619708766617597 0 0 0
289 1 6.424955152166383 9.068574757622864 6.619708251044837 0 0 0
290 1 5.519759078001605 7.789846594863959 4.390835545343938 0 0 0
291 1 8.23533453322823 7.789857146766281 4.390833137558435 0 0 0
292 1 7.330135682502742 6.511129395983392 2.1642627524029354 0 0 0
293 1 10.045705967137108 6.511147026176935 2.1642568919717955 0 0 0
294 1 9.140504209303476 5.232418540307911 0.005349674227802752 0 0 0
295 1 11.856066253222727 5.23244667590757 0.005339782705978703 0 0 0
296 1 0.993789766308059 16.74092901401375 15.535205811481042 0 0 0
1364 1 16.38196347368075 0.11760028182686 13.30638363057986 0 0 0
298 1 2.8041818782620638 15.462201563580308 13.306329725104362 0 0 0
299 1 1.8989865330998452 14.18347526716272 11.077454959224958 0 0 0
300 1 4.614572669354964 14.183475519881245 11.07745523312123 0 0 0
301 1 3.7093770501431544 12.904749083391602 8.848581889579588 0 0 0
302 1 6.4249621115449935 12.904751162387774 8.848581927547377 0 0 0
303 1 5.5197662068174616 11.626024116657659 6.619708795311172 0 0 0
304 1 8.2353489168787 11.626029687751728 6.619708325202224 0 0 0
305 1 7.330151939944349 10.347302237945867 4.390835875568164 0 0 0
306 1 10.045731162782648 10.347313594847886 4.390833589329458 0 0 0
307 1 9.140531633862494 9.068587286786213 2.1642633809386207 0 0 0
308 1 11.856106310643135 9.068606525750667 2.1642575729214486 0 0 0
309 1 10.950903679566695 7.789879916248962 0.005350545693268502 0 0 0
310 1 13.666471889832115 7.789910128994066 0.00534066188456063 0 0 0
311 1 0.9937878383293899 20.57711128432562 17.764084164565038 0 0 0
7361 1 32.675678832767915 11.626251945684762 6.619719559096126 0 0 0
313 1 2.804180035134367 19.298382239454845 15.53520633944469 0 0 0
314 1 1.8989848632418016 18.0196554722095 13.306329643793882 0 0 0
315 1 4.614572048381213 18.01965394009154 13.30633009059635 0 0 0
316 1 3.7093767460501095 16.740928004682388 11.077454921241786 0 0 0
317 1 6.424963423643248 16.740927354894957 11.077455406118988 0 0 0
318 1 5.519767981441284 15.46220188500545 8.848581839197328 0 0 0
319 1 8.235353984807823 15.462202954498109 8.84858196159916 0 0 0
320 1 7.330158383064797 14.183477388489086 6.619708755674996 0 0 0
321 1 10.045742813921875 14.183481611814043 6.619708296605072 0 0 0
322 1 9.14054632811067 12.904756024559916 4.390835970643267 0 0 0
323 1 11.856128089331353 12.90476590957042 4.390833869818358 0 0 0
324 1 10.950929326184884 11.62604221072897 2.1642637380441436 0 0 0
325 1 13.666507470753505 11.626060096082318 2.1642582052292174 0 0 0
326 1 12.76130546259731 10.3473368420478 0.005351153572914605 0 0 0
327 1 15.476879119674308 10.347365954249167 0.005341553988084089 0 0 0
328 1 0.9937860859404839 24.413294693330627 19.992965112243994 0 0 0
7354 1 32.675634534335664 7.790357384023463 4.390821842226106 0 0 0
330 1 2.804176664298614 23.134564243365844 17.76408595969151 0 0 0
331 1 1.8989821398472773 21.85583673069001 15.535207208741733 0 0 0
332 1 4.614567909574633 21.85583357308293 15.535207928445363 0 0 0
333 1 3.7093736894729292 20.577107382476598 13.306330375091301 0 0 0
334 1 6.424959752463382 20.5771036258388 13.306331256769898 0 0 0
335 1 5.519765654011828 19.29837883361251 11.077455312321224 0 0 0
336 1 8.235351776490553 19.298375600325027 11.077456072960922 0 0 0
337 1 7.330157676821599 18.019651966751855 8.848581909406398 0 0 0
338 1 10.04574360525297 18.019650272835317 8.848582202886488 0 0 0
339 1 9.140549354612068 16.740927191668227 6.619708564074161 0 0 0
340 1 11.856134466081368 16.740928192860338 6.619708165036112 0 0 0
341 1 10.950939366208454 15.462205463471655 4.390835586588956 0 0 0
342 1 13.666522770663782 15.462211282794303 4.390833676239067 0 0 0
343 1 12.761325621022474 14.183490924970796 2.164263400095648 0 0 0
344 1 15.476906568949936 14.183504443490719 2.164258179153696 0 0 0
345 1 14.571706203649931 12.904785483961529 0.005350917977174409 0 0 0
346 1 17.287284840369637 12.904809629214775 0.0053420007064852474 0 0 0
347 1 0.993784664051511 28.249479573410408 22.221848001682137 0 0 0
1353 1 13.66643768980583 0.1175361643479107 17.764134799555535 0 0 0
349 1 2.8041728494906457 26.970747787746255 19.99296828679057 0 0 0
350 1 1.89897892938901 25.692019200262134 17.7640878615781 0 0 0
351 1 4.614561437399771 25.692014998119994 17.764089247918573 0 0 0
352 1 3.7093682492598377 24.413287962565057 15.535209275309063 0 0 0
353 1 6.424951312802142 24.41328172874548 15.535210925771107 0 0 0
354 1 5.519758862773169 23.134556554691763 13.306332020185629 0 0 0
355 1 8.235342755072576 23.13454904454182 13.306333624203873 0 0 0
356 1 7.330150821182468 21.85582597238829 11.077456361939987 0 0 0
357 1 10.045735480667753 21.85581840921666 11.077457646841724 0 0 0
358 1 9.1405436808272 20.57709731431198 8.848582324330847 0 0 0
359 1 11.856128765288611 20.57709089470471 8.848582973695798 0 0 0
360 1 10.950936648212537 19.298371123696416 6.619708276189353 0 0 0
361 1 13.666521601148833 19.298366727444844 6.619707996974516 0 0 0
362 1 12.761328471428934 18.019647575185758 4.390834379240189 0 0 0
363 1 15.476912678621133 18.01964671118613 4.390832552231034 0 0 0
364 1 14.571717694288296 16.740930103270117 2.164261556098249 0 0 0
365 1 17.2873009333105 16.74093564784617 2.1642566753233963 0 0 0
366 1 16.38210317281677 15.462222042047994 0.005348981451507567 0 0 0
367 1 19.09768607900627 15.462236998507604 0.005340845667282515 0 0 0
368 1 2.804169679190152 30.806933693759703 22.221852353462477 0 0 0
369 1 1.8989759775233617 29.528203773550313 19.992971016906736 0 0 0
370 1 4.614554429533209 29.528199002827314 19.99297353737078 0 0 0
371 1 3.709361740728758 28.249470541960907 17.764091633760184 0 0 0
372 1 6.424939990843026 28.249462616291265 17.764094777303864 0 0 0
373 1 5.519748716445887 26.970736205355724 15.535212923647013 0 0 0
374 1 8.235327799320887 26.97072536565751 15.535216086961693 0 0 0
375 1 7.330137933323704 25.692001499694328 13.306335115198582 0 0 0
376 1 10.045718582760475 25.691988452345445 13.306337928749517 0 0 0
377 1 9.140529724447589 24.413267578704673 11.077458605802454 0 0 0
378 1 11.856112103495313 24.41325366605446 11.077460785391079 0 0 0
379 1 10.95092334657453 23.134535643696957 8.848583450391622 0 0 0
380 1 13.666506891115423 23.1345220858563 8.848584682047612 0 0 0
381 1 12.761317366051584 21.855806117684644 6.6197078615577345 0 0 0
382 1 15.476901443597578 21.855793558522556 6.6197078041378035 0 0 0
383 1 14.571710631840146 20.577078512923887 4.390831862478473 0 0 0
384 1 17.2872949732487 20.57706767879538 4.390830126155754 0 0 0
385 1 16.38210262433452 19.298355665991988 2.164257414405774 0 0 0
386 1 19.09768753748214 19.29834936683802 2.1642528499003513 0 0 0
387 1 18.19249364541779 18.01964241556346 0.005344225752733935 0 0 0
388 1 20.908080201636434 18.019643532072045 0.005336822438526421 0 0 0
389 1 8.235310293948318 30.806906698138377 17.76410338439379 0 0 0
390 1 7.330121030284495 29.52818049359666 15.535218957533269 0 0 0
391 1 10.045695000701748 29.528163613829165 15.53522428634888 0 0 0
392 1 9.140508300211199 28.249440896666542 13.30634042480553 0 0 0
393 1 11.856084799458635 28.249420454456143 13.30634512106641 0 0 0
394 1 10.950899594622081 26.97070175204257 11.077462693312608 0 0 0
395 1 13.666478877909949 26.97067917217156 11.077466490728865 0 0 0
396 1 12.761293446021666 25.691964171940867 8.848585642338282 0 0 0
397 1 15.476874856640977 25.691940630952296 8.848588178309424 0 0 0
398 1 14.571687867267212 24.413228232382362 6.619707302293507 0 0 0
399 1 17.287270725125136 24.41320421250798 6.619708360160659 0 0 0
400 1 16.3820821855518 23.134493282298582 4.390827789929912 0 0 0
401 1 19.097666345752796 23.134468844296126 4.390826850316612 0 0 0
402 1 18.192476995505817 21.855762183165183 2.1642502114031954 0 0 0
403 1 20.908063309643698 21.85574007975168 2.1642463195783854 0 0 0
404 1 20.002874744341355 20.577041193846306 0.0053354853375846365 0 0 0
405 1 22.71846459125383 20.577024864195202 0.005328783723446808 0 0 0
406 1 13.666435960350473 30.8068441392587 13.306359142630697 0 0 0
407 1 12.761255988493595 29.528126836632527 11.077469979281455 0 0 0
408 1 15.47682917944708 29.528092864656813 11.077480214875592 0 0 0
409 1 14.571648621817966 28.249379843384247 8.848590640333915 0 0 0
410 1 17.287225544043405 28.249343621235766 8.848600361511918 0 0 0
411 1 16.382042559833227 26.97063305608015 6.61970877499794 0 0 0
412 1 19.09762260456429 26.970594306661834 6.619716988817596 0 0 0
413 1 18.192437565117025 25.69188576212827 4.390823871934969 0 0 0
414 1 20.908020458924977 25.69184321270506 4.39082927768889 0 0 0
415 1 20.0028360499107 24.413142750934654 2.1642406472989206 0 0 0
416 1 22.718423626928892 24.413099597215876 2.1642413967946577 0 0 0
417 1 21.81324384095566 23.134413057377984 0.00532309248947772 0 0 0
418 1 24.52883832627883 23.134375346576636 0.00531941847165458 0 0 0
419 1 19.09754824184567 30.80673049388029 8.8486448326017 0 0 0
420 1 18.192368824484998 29.52801694675785 6.61972707169432 0 0 0
421 1 20.90794582152209 29.527959485492048 6.619758222692168 0 0 0
422 1 20.002763937786288 28.24924781341069 4.39083491259245 0 0 0
423 1 22.71834774262557 28.24917811672249 4.390862295953621 0 0 0
424 1 21.8131694864219 26.970486254695732 2.1642425583891907 0 0 0
425 1 24.528763329195844 26.97040741136678 2.164262396419628 0 0 0
426 1 23.623598767151325 25.691747645385846 0.0053179440208308065 0 0 0
427 1 26.33920681383912 25.691671696498734 0.005327589786175758 0 0 0
428 1 24.52864602785921 30.806449195415503 4.390934483446407 0 0 0
429 1 23.623465855078706 29.52776225404314 2.164283435228867 0 0 0
430 1 26.339085789237615 29.52762047488066 2.164324508651902 0 0 0
431 1 25.43393855545978 28.24900003791688 0.005346586262231578 0 0 0
432 1 28.149577363985458 28.248853987898837 0.0053722943806449605 0 0 0
433 1 0.9937967340362325 1.3962069033905244 11.077460605499176 0 0 0
1352 1 10.950875207722117 0.11750865915929154 17.764118448917788 0 0 0
5314 1 21.813242671377292 30.806801616660547 22.221951655668278 0 0 0
436 1 0.9937949949182855 5.232386963300967 13.306333996224497 0 0 0
7349 1 32.675550086969956 3.954616950141265 2.164228874029941 0 0 0
438 1 2.80417773752365 3.9536620744748436 11.077458327764715 0 0 0