LAMMPS data file via write_data, version 2 Aug 2023, timestep = 1961, units = metal

14401 atoms
3 atom types

0.08884270928803044 65.2625635574121 xlo xhi
0.11769685299315312 61.4961998553546 ylo yhi
-22.326096414912307 75.68529619049188 zlo zhi

Masses

1 183.84
2 1.008
3 4.0026

Atoms # atomic

1 1 0.9940397906404288 28.249502674592314 0.005240385534102537 0 0 0
1532 1 21.813340940970726 0.11778252253741558 13.306470966111318 0 0 0
3 1 0.9940362727337956 20.577192109430815 0.0052465412882738835 0 0 0
4 1 0.9940364512751171 24.413347068665303 2.1641537829200077 0 0 0
1521 1 19.09775582638596 0.1177813466576087 17.764171322254857 0 0 0
6 1 2.8044150972984414 23.134628699147083 0.0052445580707077034 0 0 0
7 1 0.9940360525565093 28.2495022775202 4.390724348915207 0 0 0
1520 1 16.382193376990944 0.11776413895852518 17.764128625770336 0 0 0
9 1 2.8044182166731186 26.970785817626915 2.164149111750701 0 0 0
10 1 1.8992275636446176 25.69206535628447 0.005242822385438315 0 0 0
11 1 4.614798209223585 25.692067570738697 0.005240623181792288 0 0 0
12 1 2.804418362057824 30.806941981678435 4.39071775738584 0 0 0
13 1 1.8992308780591087 29.52822404910769 2.1641455620747863 0 0 0
14 1 4.614804618546582 29.528226716177993 2.16414320385292 0 0 0
15 1 3.7096131291074292 28.249505257841225 0.0052382807696625105 0 0 0
16 1 6.425189532534928 28.249510178279916 0.00523697014811064 0 0 0
7248 1 32.67570172298628 26.970710797046298 6.6198432924045125 0 0 0
18 1 0.9940396092837587 12.904887026652293 0.00524670243550352 0 0 0
19 1 0.9940374285363441 16.741039368717686 2.1641577905951914 0 0 0
5351 1 27.244499093639476 30.806817925349456 22.22203611785499 0 0 0
21 1 2.8044160853219897 15.462321564262494 0.00524746050079138 0 0 0
22 1 0.9940353174468199 20.57719193504883 4.3907342527859585 0 0 0
7909 1 32.67569566474409 15.462331134925606 22.22186561289773 0 0 0
24 1 2.804414443144928 19.298474705105253 2.164156984836972 0 0 0
25 1 1.899225849641295 18.01975679588774 0.00524714589217017 0 0 0
26 1 4.614792710137535 18.019756576612046 0.005246704163920467 0 0 0
27 1 0.9940334832747766 24.413343790888504 6.619613914847016 0 0 0
5323 1 29.96008756252726 30.806777198021774 17.764350213290747 0 0 0
29 1 2.8044127073984937 23.13462822162023 4.39073112181549 0 0 0
30 1 1.8992250932342107 21.855910705715473 2.164155735754196 0 0 0
31 1 4.614792979960345 21.855911416685352 2.1641540869846807 0 0 0
32 1 3.709603410955949 20.577192460480333 0.005245782883793621 0 0 0
33 1 6.42517145639878 20.577193086885345 0.005244269663681213 0 0 0
34 1 0.9940323515629159 28.249495015564342 8.848493791103131 0 0 0
8343 1 32.67568222880464 0.11784030738780213 22.222103598555787 0 0 0
36 1 2.8044102931459984 26.970780599659676 6.619608844769927 0 0 0
37 1 1.8992242812483464 25.69206484543216 4.390728223042924 0 0 0
38 1 4.614791849134836 25.692065869594163 4.3907257567735165 0 0 0
39 1 3.7096051163853656 24.413348411766954 2.1641519095529373 0 0 0
40 1 6.4251748265616895 24.413350196564796 2.164149180662293 0 0 0
41 1 5.519984182910057 23.13463016259149 0.0052425760500213765 0 0 0
42 1 8.235555074952504 23.134632725081907 0.005240650613773465 0 0 0
43 1 2.8044069158127782 30.8069325700759 8.848488723309183 0 0 0
44 1 1.8992229627526012 29.52821800204393 6.619604646716675 0 0 0
45 1 4.614788222298706 29.528218416655733 6.619603186085687 0 0 0
46 1 3.7096048631421326 28.24950355833584 4.390722110182703 0 0 0
47 1 6.42517362306387 28.249504780747415 4.39072073313251 0 0 0
48 1 5.519989307909332 26.97078831426528 2.1641464672409336 0 0 0
49 1 8.23556205923186 26.970791746500105 2.16414558411442 0 0 0
50 1 7.330371495304761 25.692071394051922 0.005238860764600388 0 0 0
51 1 10.045947488516587 25.692077921648124 0.0052402385363582845 0 0 0
52 1 7.330379814078868 29.52823086949315 2.164143446013299 0 0 0
53 1 10.045956080541696 29.528236074204028 2.1641521784195605 0 0 0
54 1 9.140769446466184 28.249518082740625 0.005240407604658722 0 0 0
55 1 11.856352788937073 28.249530424849123 0.0052528039052717026 0 0 0
7220 1 32.6757017885479 26.97085291189576 2.1643859050155085 0 0 0
57 1 0.9940423055408353 5.232578928114516 0.005240538797209096 0 0 0
58 1 0.9940415044746954 9.068732980058408 2.164154048701155 0 0 0
5261 1 29.960090645461324 30.80676654037197 13.30664754772514 0 0 0
60 1 2.8044219890683295 7.790014610614449 0.005244653151570847 0 0 0
61 1 0.9940402105621137 12.904887152644854 4.390734474897915 0 0 0
7538 1 32.675696409549566 23.13453541955662 17.76413221258791 0 0 0
63 1 2.8044190808303564 11.626168183198532 2.164156895070675 0 0 0
64 1 1.8992303563902202 10.347451286166963 0.005246017766744855 0 0 0
65 1 4.614798810034225 10.347449306737547 0.005246573919674025 0 0 0
66 1 0.9940372601430935 16.741039350977424 6.6196193397639105 0 0 0
7296 1 32.67569833566938 23.13455726743332 8.848571970635216 0 0 0
68 1 2.804416039564527 15.462321532204925 4.390735460551648 0 0 0
69 1 1.8992280176166358 14.183604047164863 2.1641576792359842 0 0 0
70 1 4.614795315428867 14.183603004663745 2.1641575412683434 0 0 0
71 1 3.709606978169641 12.904885869137495 0.005247345428876772 0 0 0
72 1 6.425174669599283 12.90488373613096 0.005246876479698262 0 0 0
73 1 0.9940342359800127 20.577189566135484 8.848503301041886 0 0 0
7409 1 32.675695032589644 26.970638979157773 15.535351282370662 0 0 0
75 1 2.8044125667468314 19.298473362998962 6.619618282090396 0 0 0
76 1 1.899225378027721 18.01975669139495 4.390735326651948 0 0 0
77 1 4.614792068560176 18.01975630019748 4.390734297732502 0 0 0
78 1 3.7096045216234854 16.74103893279844 2.164157611764234 0 0 0
79 1 6.425171815888534 16.741038247310943 2.164156415350311 0 0 0
80 1 5.519983054021173 15.46232054978141 0.005247138019665428 0 0 0
81 1 8.235550945836534 15.462318658246325 0.005245886139197027 0 0 0
82 1 0.9940316208683803 24.413338901144282 11.077386543895123 0 0 0
5141 1 21.813318066550128 30.80682860392935 13.306484768044646 0 0 0
84 1 2.8044087134042823 23.134623709495635 8.848500370182622 0 0 0
85 1 1.8992226180809302 21.85590832484774 6.619616632782298 0 0 0
86 1 4.614788102272509 21.85590807865255 6.619614892122898 0 0 0
87 1 3.7096019904882533 20.57719206794208 4.39073317305732 0 0 0
88 1 6.425168938479638 20.57719192629034 4.390730827515485 0 0 0
89 1 5.519981863090818 19.298474795121713 2.1641556105550155 0 0 0
90 1 8.235549967141193 19.298474798779203 2.1641532207684278 0 0 0
91 1 7.330360289821432 18.019756152323776 0.005245450361645293 0 0 0
92 1 10.045929210175993 18.01975549644472 0.005243382668365575 0 0 0
93 1 0.9940304201319491 28.249488748423957 13.306272546102942 0 0 0
1741 1 28.14970080315075 1.3965262448541635 24.450891572179227 0 0 0
95 1 2.8044044136906803 26.970773654333307 11.077382982944547 0 0 0
96 1 1.8992197404376812 25.692059049012457 8.84849744892239 0 0 0
97 1 4.6147825052473905 25.692058234670057 8.848496021847918 0 0 0
98 1 3.7095986996147583 24.413343983169042 6.619612326975591 0 0 0
99 1 6.425164062533308 24.413343311979965 6.6196100071285455 0 0 0
100 1 5.519979806698746 23.134628630653825 4.390728692616029 0 0 0
101 1 8.235547525523678 23.13462864832154 4.390725977617953 0 0 0
102 1 7.330361702190261 21.8559123167377 2.164151485651204 0 0 0
103 1 10.045931364142602 21.855913740513884 2.164149012085207 0 0 0
104 1 9.140740842850239 20.57719425404399 0.005242257734726625 0 0 0
105 1 11.856312084897757 20.57719643249282 0.005240466861691943 0 0 0
1381 1 24.528964974145847 0.11773458268965892 8.848803667608014 0 0 0
107 1 1.8992174583342056 29.528209848239232 11.07737986811342 0 0 0
108 1 4.6147751141697535 29.528208505780032 11.077380080260301 0 0 0
109 1 3.70959385696474 28.24949496512269 8.848492701561812 0 0 0
110 1 6.425155693420086 28.249492972643267 8.848492672412316 0 0 0
111 1 5.519975471957958 26.970780455492655 6.619606943996464 0 0 0
112 1 8.23554033740245 26.970778853109707 6.619607261368248 0 0 0
113 1 7.330359845352986 25.69206648973509 4.390723586708712 0 0 0
114 1 10.045928784117299 25.692066810760917 4.3907240929171305 0 0 0
115 1 9.140745824132708 24.413352660906632 2.164147353833675 0 0 0
116 1 11.856317691500328 24.413356085730726 2.164148917740376 0 0 0
117 1 10.951128071071048 23.13463738321207 0.005240189962895843 0 0 0
118 1 13.666702978835575 23.13464489237079 0.0052428602435360145 0 0 0
119 1 7.330352692580103 29.528217195015987 6.619605138913888 0 0 0
120 1 10.045917738298266 29.528214379985467 6.619614269375911 0 0 0
121 1 9.140743280100782 28.249505687949995 4.390723488663879 0 0 0
122 1 11.85631244130668 28.249505613688704 4.390735339024882 0 0 0
123 1 10.951135833761274 26.970796233722357 2.1641505714470486 0 0 0
124 1 13.666710516154165 26.97080223813859 2.1641640507700814 0 0 0
125 1 12.761525916020933 25.692088340726258 0.005247406488011645 0 0 0
126 1 15.477104802360273 25.692102890844794 0.0052625146184918795 0 0 0
127 1 10.951129171218962 30.80694512735546 4.390739410163823 0 0 0
128 1 13.666701063368205 30.80694480774282 4.390772978149484 0 0 0
129 1 12.761533551996939 29.528242757352505 2.164173078434035 0 0 0
130 1 15.47711049507561 29.52825082169243 2.1642111226762917 0 0 0
131 1 14.571936605510544 28.24954739354257 0.0052774727174460115 0 0 0
132 1 17.287519943549633 28.249569399215755 0.005315710290174648 0 0 0
1633 1 19.0977621109359 0.11777412470539839 22.221933490836935 0 0 0
134 1 0.9940450636453502 1.3964203703387856 2.1641414561036587 0 0 0
1632 1 16.382198175187085 0.11775914808075441 22.221902191571324 0 0 0
1380 1 21.81339399052872 0.11772508090770045 8.84871598083421 0 0 0
137 1 0.9940461342923982 5.232579098652179 4.390724643052915 0 0 0
7425 1 32.67569089578065 30.806769463912122 17.764364532654696 0 0 0
139 1 2.804426922188999 3.9538571287379236 2.164148000144061 0 0 0
140 1 1.899235206175052 2.6751407075635694 0.005237720488355715 0 0 0
141 1 4.6148129181040005 2.6751368293066182 0.005239285970995244 0 0 0
142 1 0.9940444685533124 9.068736129684327 6.61961411388546 0 0 0
1365 1 19.097772418704416 0.11776645518954375 13.306405178280889 0 0 0
144 1 2.804423313453247 7.790014615775068 4.390729901296677 0 0 0
145 1 1.8992332256850681 6.511295662265413 2.164151564424943 0 0 0
146 1 4.614805360131372 6.5112927484135374 2.1641522618968425 0 0 0
147 1 3.709615588023773 5.232576534422571 0.005242419899500373 0 0 0
148 1 6.425190084372525 5.232570955517923 0.005242161905832478 0 0 0
149 1 0.9940410000933646 12.904889440361751 8.848503305427771 0 0 0
1740 1 25.434116549581635 1.3965148006281958 24.450865358104757 0 0 0
151 1 2.804419355047321 11.626170099560195 6.61961722970207 0 0 0
152 1 1.8992313814267507 10.347451421655068 4.39073272186135 0 0 0
153 1 4.614799412211931 10.347449464610598 4.390732543069438 0 0 0
154 1 3.709611305513052 9.06873119543945 2.164155188176432 0 0 0
155 1 6.4251816503813375 9.06872754288871 2.164154113872353 0 0 0
156 1 5.519992675236452 7.79001124578754 0.005244836667543443 0 0 0
157 1 8.235565069612171 7.790004642042737 0.005243104289957928 0 0 0
158 1 0.9940370328492685 16.741039459744556 11.07739066223831 0 0 0
657 1 5.51999365588796 0.11770976406620931 8.84848599814324 0 0 0
160 1 2.804415224745372 15.462322164606475 8.848504280273442 0 0 0
161 1 1.8992281517700422 14.183604973337056 6.619618858279622 0 0 0
162 1 4.614794340505307 14.183603847006447 6.619618150968872 0 0 0
163 1 3.7096072029301057 12.904885980884437 4.390734606187741 0 0 0
164 1 6.425175065277253 12.904883955287572 4.390733189892108 0 0 0
165 1 5.519987530427591 11.626166046813157 2.1641564900436245 0 0 0
166 1 8.235557264665779 11.62616219837574 2.164154395603035 0 0 0
167 1 7.330368195360142 10.347445462947853 0.005245553997480995 0 0 0
168 1 10.04593939914102 10.347438708459324 0.005243005593092315 0 0 0
169 1 0.994033550835047 20.577187588471883 13.30627776940589 0 0 0
1549 1 29.960119956135284 0.1177676801448728 8.848976381722657 0 0 0
171 1 2.804410720129995 19.29847160510484 11.07738979537149 0 0 0
172 1 1.8992244050560818 18.019755836370845 8.848504355901452 0 0 0
173 1 4.614789421528025 18.0197549419922 8.848503175107192 0 0 0
174 1 3.7096032179521616 16.741038661024355 6.619618807457791 0 0 0
175 1 6.425169368991388 16.741037580379892 6.619616845914729 0 0 0
176 1 5.5199828880537405 15.462320539585054 4.390734378640592 0 0 0
177 1 8.23555078678471 15.46231855246214 4.390731912689351 0 0 0
178 1 7.330363634311975 14.183600841749364 2.16415617248977 0 0 0
179 1 10.04593310089935 14.183597540802227 2.1641532598931534 0 0 0
180 1 9.140743538958446 12.904879948936609 0.005245178107689647 0 0 0
181 1 11.856314226687518 12.904873908138594 0.005242010555499073 0 0 0
182 1 0.9940310562632918 24.41333601346531 15.53516615744595 0 0 0
7394 1 32.675696994914695 23.13453420126219 13.306352263754915 0 0 0
184 1 2.804406266540973 23.13462002063501 13.306276056905956 0 0 0
185 1 1.8992206845388664 21.855904964295178 11.077388604339099 0 0 0
186 1 4.614783641573442 21.855903908457393 11.077387410107693 0 0 0
187 1 3.7095986557407734 20.57718909944711 8.848502317897529 0 0 0
188 1 6.425163345697736 20.577187693250817 8.848500208112982 0 0 0
189 1 5.519978438823387 19.29847265413452 6.619616448689471 0 0 0
190 1 8.235544595338576 19.298471377865855 6.619613594733946 0 0 0
191 1 7.330359026573363 18.01975553343992 4.390732014342699 0 0 0
192 1 10.045927415587483 18.01975391868125 4.390728623924564 0 0 0
193 1 9.140740538758672 16.741036623867195 2.1641540498798464 0 0 0
194 1 11.856310500919689 16.741034267623224 2.1641504471919144 0 0 0
195 1 10.951120105050686 15.462315776911622 0.005243561574067673 0 0 0
196 1 13.666690916650657 15.462311746055157 0.005239811884722325 0 0 0
197 1 0.9940302155112144 28.24948650485348 17.764057527208074 0 0 0
7381 1 32.67569681645921 19.298432470393205 11.077392168896608 0 0 0
199 1 2.8044020091958246 26.970769477824376 15.535164981730386 0 0 0
200 1 1.8992172709198947 25.69205404941264 13.3062744596852 0 0 0
201 1 4.614776891342553 25.69205237890668 13.306273979182986 0 0 0
202 1 3.7095934219174 24.413338276431716 11.07738556657763 0 0 0
203 1 6.425154880850094 24.41333578363766 11.077384549934454 0 0 0
204 1 5.5199724032462925 23.134622590769734 8.848498545380911 0 0 0
205 1 8.235536414401377 23.1346199481962 8.848496684469852 0 0 0
206 1 7.3303539120370065 21.85590699517716 6.619612234530075 0 0 0
207 1 10.045920093444945 21.85590505642181 6.619609728942016 0 0 0
208 1 9.140736474627287 20.57719153855093 4.390727735299701 0 0 0
209 1 11.856305466270971 20.577190181406003 4.390724735299758 0 0 0
210 1 10.951119670449314 19.298474403293618 2.164150255266936 0 0 0
211 1 13.666690593857396 19.29847406058525 2.1641470510456524 0 0 0
212 1 12.761499608875585 18.019754882353723 0.0052407050290753454 0 0 0
213 1 15.47707140519522 18.019754772592425 0.005237551179426185 0 0 0
214 1 2.804398940457255 30.80692188435103 17.764057958821095 0 0 0
215 1 1.8992150922376672 29.52820485820814 15.53516408341295 0 0 0
216 1 4.614769841904638 29.528202897086764 15.535164998335386 0 0 0
217 1 3.70958755888865 28.249488064320932 13.306272179492991 0 0 0
218 1 6.425144470969964 28.24948417118055 13.306273930515081 0 0 0
219 1 5.519964186433995 26.970771386715253 11.077382651597187 0 0 0
220 1 8.235524216662059 26.97076681387126 11.077384429329962 0 0 0
221 1 7.330345327318477 25.692055814894555 8.848495048422343 0 0 0
222 1 10.045908167410117 25.692051140093568 8.848497160883777 0 0 0
223 1 9.140729618278295 24.4133413742462 6.619608742969771 0 0 0
224 1 11.85629601150319 24.413338312428923 6.619610578951265 0 0 0
225 1 10.951115985480923 23.134628511545948 4.390724497290594 0 0 0
226 1 13.666685533375652 23.13462761691148 4.390726201294006 0 0 0
227 1 12.761502626781656 21.855915350883073 2.1641478459667383 0 0 0
228 1 15.477074782753213 21.855917888737686 2.1641490657983113 0 0 0
229 1 14.571884688713835 20.577200463931323 0.005239816597448006 0 0 0
230 1 17.28745818515829 20.57720633467474 0.005240741464337291 0 0 0
231 1 8.235509414822719 30.806915726352475 13.306280096463409 0 0 0
232 1 7.330333228642894 29.528204355247794 11.077383369050404 0 0 0
233 1 10.045890343050194 29.528196616358823 11.077394017217689 0 0 0
234 1 9.140716613847598 28.24948843036594 8.848497427185968 0 0 0
235 1 11.856278759845498 28.249481263300233 8.848509784063262 0 0 0
236 1 10.951106074483098 26.970775689936083 6.61961263053469 0 0 0
237 1 13.666671676606299 26.970770349538782 6.619626938154443 0 0 0
238 1 12.761497718685696 25.692066428451355 4.3907305748711325 0 0 0
239 1 15.477068418678359 25.69206539876923 4.3907448202646275 0 0 0
240 1 14.571890813124472 24.413360432521312 2.164155710879063 0 0 0
241 1 17.287464027433597 24.413365686333872 2.1641694253295136 0 0 0
242 1 16.382278401632465 23.1346555335749 0.0052499865392623335 0 0 0
243 1 19.097853475934887 23.13466908738237 0.005261692394386981 0 0 0
244 1 10.951087341055235 30.80692042645722 8.848514120979445 0 0 0
245 1 13.666647235723715 30.806909936832376 8.848546645507875 0 0 0
246 1 12.761482150295691 29.528209064224896 6.61963577649759 0 0 0
247 1 15.477048191726036 29.528201659546106 6.61967156392253 0 0 0
248 1 14.571883209018967 28.2495052062169 4.390759039866422 0 0 0
249 1 17.28745318567472 28.24950304139771 4.390796466830823 0 0 0
250 1 16.38228517095596 26.970809334123235 2.164189063954619 0 0 0
251 1 19.097858840916157 26.970817552689567 2.1642238278415156 0 0 0
252 1 18.19268295601474 25.69212145849218 0.005286099796759208 0 0 0
253 1 20.908257356685706 25.692142483651743 0.005316429246197826 0 0 0
7307 1 32.67569823200741 26.970651672474567 11.077599802868884 0 0 0
255 1 18.192686216532778 29.52825952240501 2.164264141437874 0 0 0
256 1 20.908259556965643 29.52826856787495 2.164331687660891 0 0 0
257 1 20.00309772535912 28.24959466500367 0.0053655377395496525 0 0 0
258 1 22.718669863922916 28.24962220665165 0.005422425996705206 0 0 0
1165 1 16.382253514292916 0.11771603639604579 8.848577015599595 0 0 0
260 1 0.9940526507552645 1.396426855193109 6.6195999643692875 0 0 0
2 1 0.08885059094798464 30.806940910955692 0.005237228948640429 0 0 0
7370 1 32.675696605190595 15.462317711341319 8.848479991757488 0 0 0
263 1 0.9940501815116773 5.23258601777098 8.848493678435807 0 0 0
5 1 0.08884724036559533 23.134627854232566 0.005245466239551311 0 0 0
265 1 2.8044278422561897 3.953862449022821 6.619605725274613 0 0 0
266 1 1.8992387522436625 2.675140803937698 4.3907200231844845 0 0 0
267 1 4.614811101341294 2.6751375516109177 4.390720835143281 0 0 0
268 1 3.7096231911032604 1.3964175633317342 2.164143513536152 0 0 0
269 1 6.425203157125916 1.3964113962459128 2.164144617589313 0 0 0
5352 1 29.960093189572206 30.806807484127013 22.22205715225749 0 0 0
5322 1 27.24448943970861 30.806791405531726 17.764319029515587 0 0 0
272 1 0.9940459047645485 9.06874095142522 11.077386309260168 0 0 0
5315 1 24.528910962070086 30.806831992307927 22.22200690057346 0 0 0
274 1 2.8044233790338597 7.790020010286566 8.848497916170594 0 0 0
275 1 1.89923604719539 6.511299799036925 6.61961045060394 0 0 0
276 1 4.614803197266723 6.5112975819349375 6.619610215578204 0 0 0
277 1 3.709616438109442 5.232576607619085 4.39072578105249 0 0 0
278 1 6.425187757934359 5.23257284658507 4.390724566765284 0 0 0
279 1 5.520002289241516 3.9538528317073807 2.1641481888357004 0 0 0
280 1 8.235579452081515 3.953844714658616 2.164147360410598 0 0 0
281 1 7.330393290983384 2.675128221140206 0.005239939843941134 0 0 0
282 1 10.045978332584513 2.6751126827171468 0.0052435087389632986 0 0 0
283 1 0.9940410662149101 12.90489161410495 13.306277516286128 0 0 0
8 1 0.08884742144120139 26.970784450192077 2.164150894724831 0 0 0
285 1 2.8044187337901865 11.626173303973227 11.077388541114736 0 0 0
286 1 1.8992321836040273 10.347455174837284 8.848501182609288 0 0 0
287 1 4.614797520908402 10.347453694932284 8.848500509792654 0 0 0
288 1 3.709611067104602 9.06873429041815 6.619614358123085 0 0 0
289 1 6.425178450953136 9.068732302408904 6.619612628798043 0 0 0
290 1 5.519992749269239 7.7900117905992134 4.39072907133522 0 0 0
291 1 8.235563349362398 7.790007510928935 4.390726315288671 0 0 0
292 1 7.330378472107423 6.511287252716428 2.164150467828806 0 0 0
293 1 10.045953921188863 6.511278229282189 2.164148083837355 0 0 0
294 1 9.140767632292784 5.232560452514824 0.005241083292759527 0 0 0
295 1 11.85634934623194 5.232543266147268 0.005243010938958092 0 0 0
296 1 0.9940366152114949 16.741039649486282 15.5351674827178 0 0 0
914 1 13.666686479849627 0.11771324738943238 8.84853313975819 0 0 0
298 1 2.8044141205421425 15.462322880587795 13.306278019065402 0 0 0
299 1 1.899227881473321 14.18360657768023 11.077390111802146 0 0 0
300 1 4.614792341048223 14.183605503957642 11.077389201821598 0 0 0
301 1 3.7096062781089416 12.90488823485047 8.84850303359463 0 0 0
302 1 6.425172002366359 12.90488689245377 8.848501173248962 0 0 0
303 1 5.519986242269131 11.626168387348269 6.619616099817834 0 0 0
304 1 8.235553598622863 11.626166300263192 6.619613120667478 0 0 0
305 1 7.330368347940553 10.347446442989664 4.390730407967504 0 0 0
306 1 10.045938336856015 10.347442002767746 4.390726435988319 0 0 0
307 1 9.140753518928596 9.068721537273747 2.1641511671332503 0 0 0
308 1 11.8563273663491 9.06871221855918 2.164147409881298 0 0 0
309 1 10.951140336005908 7.789993504169352 0.005240864052303297 0 0 0
310 1 13.666718966287974 7.7899763988941615 0.005240568198443492 0 0 0
311 1 0.9940333694754264 20.577187120407583 17.76405749251942 0 0 0
7361 1 32.675700099473026 11.626167754503241 6.619625843916113 0 0 0
313 1 2.8044097644347663 19.298470720674263 15.535167144897585 0 0 0
314 1 1.8992235142569118 18.019755239771182 13.306278260590856 0 0 0
315 1 4.614787354875499 18.01975411382243 13.306277427390416 0 0 0
316 1 3.709601485767816 16.74103848571459 11.077390016364001 0 0 0
317 1 6.425166095667194 16.741037278236895 11.077388396147834 0 0 0
318 1 5.519980512115104 15.462321026021868 8.848502869335789 0 0 0
319 1 8.235546695995792 15.462319453688325 8.848500150298317 0 0 0
320 1 7.330361305783057 14.18360211155331 6.619615813726363 0 0 0
321 1 10.045929046851382 14.183599933841121 6.619611941370271 0 0 0
322 1 9.140743745759163 12.90488093959612 4.390730024772041 0 0 0
323 1 11.856313710296293 12.904876631227745 4.3907251508925 0 0 0
324 1 10.951128307359642 11.626156382622124 2.164150636935498 0 0 0
325 1 13.666701190672491 11.626147913806097 2.16414583611572 0 0 0
326 1 12.761512892254206 10.347428063413828 0.005239661140089063 0 0 0
327 1 15.477089047476605 10.34741303793704 0.005237197299095136 0 0 0
328 1 0.9940312901633511 24.413336044942582 19.992948976740095 0 0 0
658 1 8.23555722135669 0.11770984485135665 8.848491561468395 0 0 0
330 1 2.8044058673814427 23.134618833210805 17.764057299590085 0 0 0
331 1 1.899219842322031 21.85590309394187 15.535166817401985 0 0 0
332 1 4.614781738394266 21.85590170028545 15.53516631863787 0 0 0
333 1 3.7095964312388343 20.577186806729735 13.306277073498515 0 0 0
334 1 6.425159472444291 20.577184728261727 13.30627597750523 0 0 0
335 1 5.51997478170521 19.298470273577184 11.077388386358528 0 0 0
336 1 8.235539128778353 19.298468092078863 11.077386301009911 0 0 0
337 1 7.330354733473164 18.019753570647648 8.848500845426775 0 0 0
338 1 10.045920989677551 18.01975118379344 8.848497612118436 0 0 0
339 1 9.14073657424504 16.74103569575612 6.619613620658814 0 0 0
340 1 11.856304688178968 16.741033196913342 6.6196091515922095 0 0 0
341 1 10.951119775025715 15.462315890376637 4.390727888583085 0 0 0
342 1 13.666689892728614 15.462312325884767 4.390722470155089 0 0 0
343 1 12.761504043310188 14.183592525700128 2.1641487244125432 0 0 0
344 1 15.47707637637416 14.1835863049047 2.164142957534926 0 0 0
345 1 14.571886683008998 12.904865498609492 0.005237591404580866 0 0 0
346 1 17.287461002265253 12.904854151681015 0.005233142381290246 0 0 0
347 1 0.9940306345673976 28.24948808668474 22.22184269663995 0 0 0
23 1 0.08884735700227964 19.29847458360573 2.1641573108538306 0 0 0
349 1 2.804402754054424 26.97076930981075 19.992949847282272 0 0 0
350 1 1.8992169952963447 25.692052298398018 17.764057333519922 0 0 0
351 1 4.614775880599186 25.692050382538064 17.764057709798134 0 0 0
352 1 3.709591205777983 24.413335038667157 15.535165790815029 0 0 0
353 1 6.4251512355056155 24.413331860500538 15.535166072673169 0 0 0
354 1 5.5199676889782365 23.134618031589678 13.306275266433621 0 0 0
355 1 8.235529386527014 23.134613883910916 13.30627507226597 0 0 0
356 1 7.330346834277931 21.85590131192224 11.0773858160892 0 0 0
357 1 10.045910536312086 21.855897232012804 11.077384728054847 0 0 0
358 1 9.140728322714658 20.57718527049499 8.848497665313877 0 0 0
359 1 11.856294471172912 20.577181409247025 8.848495501054138 0 0 0
360 1 10.951112042628392 19.298468966178387 6.619610069532129 0 0 0
361 1 13.66668048203535 19.298465945353364 6.619606621002123 0 0 0
362 1 12.761496806214847 18.01975153866895 4.3907243868917964 0 0 0
363 1 15.477067428011924 18.01974890378936 4.390719619825252 0 0 0
364 1 14.571881705960312 16.741031489972798 2.1641456193357533 0 0 0
365 1 17.287454070561964 16.74102798125258 2.164140121582863 0 0 0
366 1 16.382263118420877 15.462306925069935 0.005234924458624409 0 0 0
367 1 19.097836491240994 15.462301634985991 0.005229715798197674 0 0 0
368 1 2.804401025918661 30.806923579893365 22.221844962922255 0 0 0
369 1 1.899215597426146 29.528204574823107 19.992950902594192 0 0 0
370 1 4.61477069970066 29.528202528105258 19.992952471167552 0 0 0
371 1 3.709586221230719 28.24948552458798 17.764057822357316 0 0 0
372 1 6.425142488153378 28.24948131860902 17.76406039477015 0 0 0
373 1 5.519959666532295 26.970766539554162 15.535165715336502 0 0 0
374 1 8.235517218927896 26.97076068286762 15.535169001904292 0 0 0
375 1 7.330336230004955 25.692048228295356 13.306274723214452 0 0 0
376 1 10.045896388267165 25.692041364838413 13.306278187986715 0 0 0
377 1 9.140716986941317 24.41333110499508 11.077384799835338 0 0 0
378 1 11.856279551894927 24.413324124180175 11.07738831599036 0 0 0
379 1 10.951100873851729 23.134615683452925 8.848496458688645 0 0 0
380 1 13.666666774913834 23.134609608944903 8.848499199204232 0 0 0
381 1 12.761487691632412 21.85590177749973 6.619608650954129 0 0 0
382 1 15.477056357204134 21.8558973725728 6.61961013547988 0 0 0
383 1 14.571875484365313 20.57718847802669 4.3907228308752595 0 0 0
384 1 17.28744654702414 20.577186394770834 4.390722574808775 0 0 0
385 1 16.382262551892723 19.298473892554814 2.164144231270319 0 0 0
386 1 19.09783499254783 19.298474213011108 2.164142234715457 0 0 0
387 1 18.192644049305617 18.01975563123246 0.005234179605863657 0 0 0
388 1 20.9082171451305 18.019757404109086 0.0052311974467101644 0 0 0
389 1 8.235505073879807 30.806911794651253 17.764068560305102 0 0 0
390 1 7.330324344344503 29.52819737273221 15.535169519041352 0 0 0
391 1 10.045879779759161 29.52818854634291 15.535179696727766 0 0 0
392 1 9.140701861753815 28.24947730898686 13.306279576836321 0 0 0
393 1 11.856259750685824 28.249466865977332 13.306292277242473 0 0 0
394 1 10.951084318658767 26.97075915495968 11.077391414717834 0 0 0
395 1 13.666646128509981 26.970748641913083 11.07740551011844 0 0 0
396 1 12.761472117637233 25.6920444819096 8.848504392857311 0 0 0
397 1 15.477037280384017 25.69203519108726 8.84851905814816 0 0 0
398 1 14.571863327662843 24.413333544922878 6.619617844839071 0 0 0
399 1 17.287432384881946 24.413327377720574 6.619631005434597 0 0 0
400 1 16.38225627613826 23.13462630398579 4.3907321649924675 0 0 0
401 1 19.097827547712786 23.13462450567493 4.3907428608855765 0 0 0
402 1 18.192647381332584 21.855921346778253 2.1641534748706177 0 0 0
403 1 20.908220032696857 21.855925098437954 2.1641605862991677 0 0 0
404 1 20.00303148497584 20.577214507578613 0.005243412350790733 0 0 0
405 1 22.718603993274353 20.577224048391898 0.0052473498037898785 0 0 0
406 1 13.666620274581476 30.80689125406554 13.306325774434685 0 0 0
407 1 12.761449289363204 29.528185694463996 11.077414399602807 0 0 0
408 1 15.477009573077984 29.52817072836474 11.077447926934656 0 0 0
409 1 14.571841269178224 28.249470727440787 8.848533451364196 0 0 0
410 1 17.287407207659427 28.24945766784288 8.848568450634863 0 0 0
411 1 16.382239306968465 26.970763074851416 6.61965093776134 0 0 0
412 1 19.09780833859793 26.97075369348717 6.6196853718453195 0 0 0
413 1 18.192638804468306 25.692063158749548 4.390767852088758 0 0 0
414 1 20.90821132624635 25.69206056414731 4.390797593925417 0 0 0
415 1 20.003036886693895 24.413371786286646 2.1641886774713996 0 0 0
416 1 22.718608712268498 24.41337848658985 2.1642120892362993 0 0 0
417 1 21.813426163637796 23.13468465603581 0.00527667010521028 0 0 0
418 1 24.528996442282853 23.13470083496246 0.005292566197402019 0 0 0
28 1 0.08884586000451122 23.134627587383353 4.390732217663944 0 0 0
420 1 18.19261563198267 29.52819127594658 6.619723400527657 0 0 0
421 1 20.90818609715626 29.528178803141504 6.619786111797799 0 0 0
422 1 20.00302539784225 28.249500388199966 4.390845491268087 0 0 0
423 1 22.718596257561824 28.24949549468645 4.390901700953692 0 0 0
424 1 21.813431140373776 26.97082613601989 2.164266893831412 0 0 0
425 1 24.529001070741586 26.97083431144095 2.16431063891477 0 0 0
426 1 23.623827685173342 25.69216504802386 0.005349774830800463 0 0 0
427 1 26.339391963327827 25.69218617584349 0.005380667030985764 0 0 0
428 1 24.52898654667982 30.80692294157033 4.391070137504229 0 0 0
429 1 23.62382890208639 29.52827612348287 2.1644036032891023 0 0 0
430 1 26.33939615431038 29.528282711264417 2.1644736236452182 0 0 0
431 1 25.43423258392589 28.249648658515135 0.005478432671111298 0 0 0
432 1 28.149788708680024 28.24967186613088 0.0055250092102464435 0 0 0
433 1 0.9940559117045222 1.3964355923836969 11.07737601622412 0 0 0
35 1 0.08884523465462735 26.97077989925986 6.619610248477699 0 0 0
5314 1 21.81332982979138 30.806847961843555 22.22197368909004 0 0 0
436 1 0.9940511159607542 5.232592232751488 13.306271764849312 0 0 0
7861 1 32.675685831677455 0.1178546542003543 13.306730601860188 0 0 0
438 1 2.8044263440296677 3.953870517649975 11.07737948192118 0 0 0