LAMMPS data file via write_data, version 2 Aug 2023, timestep = 287, units = metal

14401 atoms
3 atom types

0.08857813730533598 65.26282812939503 xlo xhi
0.11727948679512946 61.496617221552626 ylo yhi
-22.32522185446706 75.68442163004664 zlo zhi

Masses

1 183.84
2 1.008
3 4.0026

Atoms # atomic

1 1 0.9937760479832636 28.249475949393535 0.005542831702763982 0 0 0
259 1 24.5286270630509 30.806488620135834 0.005476484069441327 0 0 0
3 1 0.9937760539696725 20.577058731616376 0.005542835065423062 0 0 0
4 1 0.9937760510540324 24.41326733924667 2.164436696068481 0 0 0
5322 1 27.244476107245482 30.806852526150433 17.764249894158386 0 0 0
6 1 2.804171886068569 23.134531136429683 0.005542834104755502 0 0 0
7 1 0.9937760481629587 28.249475940274042 4.390994456255507 0 0 0
5260 1 27.244429565642914 30.806781887558248 13.306570443263498 0 0 0
9 1 2.8041718557113495 26.970739727673994 2.1644366922626888 0 0 0
10 1 1.8989739682442783 25.692003542059954 0.005542833580465752 0 0 0
11 1 4.614567681770609 25.69200351825918 0.005542819741135507 0 0 0
12 1 2.804171737559624 30.806948277850438 4.390994459442504 0 0 0
13 1 1.8989739273246444 29.528212125850814 2.1644366898143876 0 0 0
14 1 4.61456734362187 29.52821193142838 2.164436656941344 0 0 0
15 1 3.7093697363338087 28.249475911844232 0.005542811933399792 0 0 0
16 1 6.424962842230831 28.24947552662155 0.005542651034404153 0 0 0
17 1 8.23535178417663 30.80694410922221 0.005541209764523827 0 0 0
18 1 0.9937760544622026 12.904641515347203 0.005542834530293465 0 0 0
19 1 0.9937760541319552 16.74085012353217 2.1644366963430715 0 0 0
5351 1 27.244506389243785 30.806921241413725 22.22191065216937 0 0 0
21 1 2.8041718869917203 15.46211392047436 0.005542835088412518 0 0 0
22 1 0.9937760536342948 20.577058731582785 4.3909944556361 0 0 0
7909 1 32.67570313324628 15.462113922436865 22.221881255654104 0 0 0
24 1 2.8041718863724507 19.298322528418804 2.164436696302311 0 0 0
25 1 1.8989739704073638 18.019586326104104 0.005542835089454774 0 0 0
26 1 4.614567719825013 18.019586325839636 0.005542834851788127 0 0 0
27 1 0.9937760526189096 24.413267339415007 6.619854985443819 0 0 0
5323 1 29.960080430867002 30.80683597172144 17.76426930638163 0 0 0
29 1 2.8041718820375268 23.134531134176953 4.390994455719884 0 0 0
30 1 1.898973969279184 21.855794933608372 2.1644366962755632 0 0 0
31 1 4.614567709993348 21.85579492655661 2.16443669476449 0 0 0
32 1 3.7093698029542796 20.57705873124983 0.005542834566420523 0 0 0
33 1 6.424963544346248 20.577058724335743 0.005542830345535734 0 0 0
34 1 0.9937760517677089 28.24947594625486 8.848717146961523 0 0 0
4820 1 29.959765268932866 30.806041632760767 0.005575486043230177 0 0 0
36 1 2.804171864820663 26.97073973420195 6.619854988173021 0 0 0
37 1 1.898973962451717 25.692003538949468 4.39099445568374 0 0 0
38 1 4.614567646146059 25.692003495905706 4.390994456484456 0 0 0
39 1 3.7093697850265306 24.413267327194863 2.1644366937211625 0 0 0
40 1 6.4249634156291915 24.41326723338996 2.1644366771326733 0 0 0
41 1 5.519765616952822 23.134531122964734 0.005542826012476773 0 0 0
42 1 8.235359210681107 23.134530996856025 0.005542770335246035 0 0 0
43 1 2.804171834723644 30.806948330440203 8.848717158447384 0 0 0
44 1 1.8989739446493052 29.528212136001073 6.619854990052533 0 0 0
45 1 4.614567430247665 29.528212003219437 6.619855027357541 0 0 0
46 1 3.7093696900196043 28.249475886270602 4.390994457427502 0 0 0
47 1 6.424962723845361 28.249475427653955 4.390994474653568 0 0 0
48 1 5.519765395356342 26.97073958235998 2.1644366672061195 0 0 0
49 1 8.235357925701706 26.970738633352912 2.1644365583073766 0 0 0
50 1 7.3301610906868815 25.692003281581446 0.0055427187455554935 0 0 0
51 1 10.04575303662598 25.692001844450996 0.0055421800537147755 0 0 0
52 1 7.330159023631933 29.52821054959473 2.1644365217601993 0 0 0
53 1 10.045744080985497 29.528203912695226 2.1644361677823456 0 0 0
54 1 9.140552924968892 28.249473058363506 0.005541734950856373 0 0 0
55 1 11.856134032104494 28.2494630582752 0.005538197859481698 0 0 0
56 1 13.666465012260355 30.80688784668324 0.00552146868838692 0 0 0
57 1 0.9937761261038385 5.2322243377828155 0.005542810185943283 0 0 0
58 1 0.9937760737722979 9.068432920396312 2.1644366935154915 0 0 0
5261 1 29.960039466967647 30.80676511552256 13.306603377782674 0 0 0
60 1 2.804171889003397 7.789696704743493 0.005542833489805397 0 0 0
61 1 0.9937760568113249 12.904641517052092 4.390994455633507 0 0 0
5157 1 27.2443737010653 30.80668412465907 8.84888318944131 0 0 0
63 1 2.8041718881636064 11.62590531305523 2.1644366962608377 0 0 0
64 1 1.8989739713606768 10.34716911019173 0.0055428340254903554 0 0 0
65 1 4.614567720157208 10.347169109185407 0.005542835156552344 0 0 0
66 1 0.9937760540968525 16.740850123481323 6.619854985429756 0 0 0
1548 1 27.244188491356642 0.11783799231864123 8.84927257704272 0 0 0
68 1 2.8041718870511727 15.462113920544509 4.390994455610449 0 0 0
69 1 1.8989739710688203 14.183377718192746 2.164436696293469 0 0 0
70 1 4.6145677199626 14.183377717687401 2.1644366963977526 0 0 0
71 1 3.7093698034163864 12.904641514965228 0.005542835051029365 0 0 0
72 1 6.424963553161947 12.90464151480531 0.0055428352069323995 0 0 0
73 1 0.9937760537594098 20.577058731691594 8.848717145471996 0 0 0
1758 1 2.804171886975327 23.134531137329205 26.67959988778966 0 0 0
75 1 2.8041718864995797 19.2983225285686 6.6198549854570885 0 0 0
76 1 1.898973970355488 18.019586326048806 4.390994455611657 0 0 0
77 1 4.614567718733796 18.019586324963377 4.3909944556129386 0 0 0
78 1 3.7093698032865685 16.74085012306526 2.1644366963431643 0 0 0
79 1 6.424963551157753 16.74085012130684 2.1644366960266104 0 0 0
80 1 5.51976563644715 15.46211392043872 0.005542834996570628 0 0 0
81 1 8.235359385180914 15.462113919331124 0.0055428344163061145 0 0 0
82 1 0.9937760538770968 24.41326733982802 11.077577796505713 0 0 0
5141 1 21.81324819910943 30.80683890563247 13.30651403110742 0 0 0
84 1 2.804171885129246 23.134531136276408 8.848717145852572 0 0 0
85 1 1.8989739695258843 21.855794934038013 6.619854985496958 0 0 0
86 1 4.614567711447154 21.855794928500654 6.619854986546259 0 0 0
87 1 3.7093698007604208 20.57705872966271 4.390994455635472 0 0 0
88 1 6.424963531887771 20.577058713727126 4.39099445568938 0 0 0
89 1 5.519765631816172 19.29832252457585 2.1644366955336474 0 0 0
90 1 8.235359356851754 19.29832249889548 2.1644366909450192 0 0 0
91 1 7.330161466277059 18.019586322887527 0.0055428329471921825 0 0 0
92 1 10.045755196913655 18.019586302009795 0.005542822738275475 0 0 0
93 1 0.9937760520257674 28.249475949310753 13.306439800222794 0 0 0
5012 1 29.959782425509996 30.80621806961087 4.391213608428417 0 0 0
95 1 2.804171882922457 26.970739743388922 11.077577797728049 0 0 0
96 1 1.8989739680781914 25.692003541397227 8.848717146007148 0 0 0
97 1 4.614567690536505 25.69200352569616 8.848717152586994 0 0 0
98 1 3.7093697886350667 24.413267331265242 6.619854987341674 0 0 0
99 1 6.424963434391453 24.413267258094034 6.619855002624887 0 0 0
100 1 5.5197655941028065 23.13453110615573 4.390994455898334 0 0 0
101 1 8.235359128561003 23.1345309193635 4.390994459359909 0 0 0
102 1 7.330161401072535 21.8557948734851 2.1644366853054917 0 0 0
103 1 10.045754875871724 21.855794584426942 2.164436643555908 0 0 0
104 1 9.140557233452906 20.57705866728323 0.005542803974863615 0 0 0
105 1 11.856150726495944 20.577058377032706 0.00554268913718544 0 0 0
1520 1 16.382117942485973 0.11729881882357063 17.764182997172757 0 0 0
107 1 1.8989739642917944 29.528212149567686 11.077577798213456 0 0 0
108 1 4.614567655113795 29.52821211918867 11.077577817733495 0 0 0
109 1 3.709369761793201 28.24947592713081 8.848717155365977 0 0 0
110 1 6.424963184704758 28.24947573712861 8.848717242065243 0 0 0
111 1 5.519765438123555 26.970739628056116 6.619855014019217 0 0 0
112 1 8.235358168275704 26.97073891397267 6.619855182087965 0 0 0
113 1 7.330160975251593 25.692003182435325 4.390994464694644 0 0 0
114 1 10.045752915305098 25.69200159207184 4.390994545806748 0 0 0
115 1 9.140556539361206 24.41326666769577 2.1644366033419495 0 0 0
116 1 11.856148060665344 24.413264309172412 2.164436361627721 0 0 0
117 1 10.950952207729948 23.13453028511918 0.0055424976695269594 0 0 0
118 1 13.666543665974304 23.134527647508747 0.00554158327103598 0 0 0
119 1 7.3301595193572195 29.52821101701366 6.619855300902897 0 0 0
120 1 10.045746381855267 29.528206207551467 6.619856616909478 0 0 0
121 1 9.140553126564273 28.249472930458225 4.39099464778795 0 0 0
122 1 11.85613655670598 28.24946369246035 4.390995572525506 0 0 0
123 1 10.950946938304487 26.970734361893726 2.164436220074778 0 0 0
124 1 13.666528538573168 26.97072137975416 2.1644353214836127 0 0 0
125 1 12.76134088889674 25.691996223382063 0.005540217171808317 0 0 0
126 1 15.476921830690728 25.691981086073692 0.005535373689183897 0 0 0
127 1 10.950928850681057 30.806931086691005 4.390996585875128 0 0 0
128 1 13.666485850209998 30.806896986335758 4.391002063329769 0 0 0
129 1 12.76131442570336 29.52818284584848 2.164435253841883 0 0 0
130 1 15.476867352799692 29.528138183025156 2.164432515446641 0 0 0
131 1 14.571700125821444 28.24943604557406 0.005529193616162035 0 0 0
132 1 17.287252829199012 28.249384280417917 0.005514127894369315 0 0 0
133 1 16.381988298407077 30.806812460390912 0.00549875702999317 0 0 0
134 1 0.9937766192048105 1.3960159738348064 2.164436643928017 0 0 0
1513 1 13.666544561864933 0.11728118150045219 22.221883581809877 0 0 0
1512 1 10.950952360918915 0.11727996368666282 22.221881891513863 0 0 0
137 1 0.9937761754282551 5.232224364751624 4.390994457654264 0 0 0
7425 1 32.675689631655665 30.806826391567494 17.76428319153553 0 0 0
139 1 2.8041719350682355 3.953488122005943 2.1644366891888764 0 0 0
140 1 1.8989740847693153 2.674751942665674 0.005542799868418722 0 0 0
141 1 4.614567685782995 2.6747519205560306 0.005542831264307415 0 0 0
142 1 0.9937760697669071 9.068432915942102 6.619854987470208 0 0 0
1380 1 21.813006673006345 0.11759917535727027 8.848943891926353 0 0 0
144 1 2.80417189552172 7.789696707853565 4.390994455737619 0 0 0
145 1 1.8989740039705676 6.510960520402448 2.164436692071068 0 0 0
146 1 4.614567722714021 6.510960503805483 2.1644366947767146 0 0 0
147 1 3.7093698102542287 5.232224296738865 0.005542831915457731 0 0 0
148 1 6.424963511983737 5.232224327240855 0.005542835795926658 0 0 0
149 1 0.9937760550277196 12.904641515675454 8.848717145729948 0 0 0
7409 1 32.67569441203969 26.97064751512482 15.535365109748295 0 0 0
151 1 2.80417188792081 11.625905312586886 6.619854985510589 0 0 0
152 1 1.8989739756424342 10.34716911263536 4.390994455729237 0 0 0
153 1 4.614567720897483 10.347169109179651 4.390994455534395 0 0 0
154 1 3.709369806408891 9.068432907475522 2.16443669614695 0 0 0
155 1 6.424963553037374 9.068432907256595 2.1644366951726064 0 0 0
156 1 5.5197656408276075 7.7896967006460995 0.005542834503194856 0 0 0
157 1 8.235359351305686 7.789696730636311 0.0055428357785417765 0 0 0
158 1 0.993776053913903 16.740850123336678 11.077577796407434 0 0 0
1365 1 19.097623062808122 0.11738481576032456 13.306538335067918 0 0 0
160 1 2.8041718870056367 15.462113920502805 8.848717145479531 0 0 0
161 1 1.8989739709251967 14.183377718039889 6.6198549854605275 0 0 0
162 1 4.614567720063446 14.183377717587355 6.619854985417721 0 0 0
163 1 3.7093698037531686 12.904641515033688 4.390994455644522 0 0 0
164 1 6.424963553372901 12.904641514402838 4.39099445552555 0 0 0
165 1 5.519765637207346 11.625905311780164 2.164436696407627 0 0 0
166 1 8.23535938640594 11.625905312057032 2.164436695366261 0 0 0
167 1 7.330161473786907 10.347169106303296 0.00554283483995136 0 0 0
168 1 10.045755195157879 10.347169131750658 0.005542834781639763 0 0 0
169 1 0.9937760538607018 20.577058731701094 13.306439800261025 0 0 0
1353 1 13.666536476275715 0.1172869073200502 17.76416918970144 0 0 0
171 1 2.804171886873121 19.29832252883989 11.077577796419519 0 0 0
172 1 1.8989739703929416 18.01958632608591 8.848717145478451 0 0 0
173 1 4.614567719527978 18.019586325648316 8.848717145596922 0 0 0
174 1 3.709369803312433 16.740850123117557 6.619854985428781 0 0 0
175 1 6.424963551409686 16.740850121557248 6.619854985664209 0 0 0
176 1 5.519765636086527 15.462113919958307 4.390994455631214 0 0 0
177 1 8.235359383368639 15.462113916679458 4.390994455586853 0 0 0
178 1 7.3301614694188295 14.183377716616265 2.1644366962992208 0 0 0
179 1 10.045755217084697 14.183377713752543 2.1644366949378884 0 0 0
180 1 9.140557305676607 12.90464151231458 0.0055428348228147755 0 0 0
181 1 11.856151040125011 12.904641526663108 0.005542832788185671 0 0 0
182 1 0.9937760538467864 24.413267340111418 15.535300181082249 0 0 0
7394 1 32.67570087286051 23.13449958947929 13.306457259138282 0 0 0
184 1 2.80417188672135 23.13453113716951 13.306439800348581 0 0 0
185 1 1.8989739702492798 21.855794934428594 11.077577796428502 0 0 0
186 1 4.61456771810677 21.855794933191365 11.077577797025752 0 0 0
187 1 3.709369802437699 20.57705873096066 8.848717145713417 0 0 0
188 1 6.4249635436490555 20.577058724112305 8.84871714790608 0 0 0
189 1 5.5197656323181565 19.298322525410228 6.619854985989045 0 0 0
190 1 8.235359359493504 19.298322503428622 6.6198549895669325 0 0 0
191 1 7.330161460665354 18.019586317221727 4.390994455660788 0 0 0
192 1 10.045755177030278 18.01958627636372 4.3909944559567196 0 0 0
193 1 9.140557292631096 16.740850110851127 2.164436694240687 0 0 0
194 1 11.856151014912255 16.740850068131323 2.1644366860556863 0 0 0
195 1 10.95095313244248 15.462113912479198 0.005542831282817547 0 0 0
196 1 13.666546865061033 15.462113895241147 0.005542819424003428 0 0 0
197 1 0.9937760532187317 28.249475948926772 17.764161133404784 0 0 0
7381 1 32.6757028545938 19.298317199349675 11.077580219968677 0 0 0
199 1 2.804171886487108 26.9707397454874 15.53530018127847 0 0 0
200 1 1.8989739701882618 25.692003542663436 13.30643980043764 0 0 0
201 1 4.614567715454299 25.6920035403111 13.306439802044734 0 0 0
202 1 3.7093698004019524 24.413267338332965 11.077577797345961 0 0 0
203 1 6.424963522217007 24.413267319640756 11.077577807096574 0 0 0
204 1 5.51976561852041 23.134531124987195 8.848717149955736 0 0 0
205 1 8.2353592599731 23.134531037607328 8.848717180066565 0 0 0
206 1 7.330161408335775 21.855794885007207 6.619854994508504 0 0 0
207 1 10.045754915631104 21.855794645981906 6.619855037125068 0 0 0
208 1 9.140557187754547 20.57705861824028 4.3909944570055135 0 0 0
209 1 11.85615061487458 20.577058219760612 4.390994467295947 0 0 0
210 1 10.95095300710172 19.298322375553095 2.1644366715455243 0 0 0
211 1 13.666546476977622 19.298321967866986 2.1644366145199068 0 0 0
212 1 12.761348881585361 18.019586209147246 0.005542784720302741 0 0 0
213 1 15.476942461775621 18.019585940112012 0.005542689770373105 0 0 0
214 1 2.804171885628388 30.80694835412486 17.764161133742643 0 0 0
215 1 1.8989739686088365 29.528212151826637 15.535300180907472 0 0 0
216 1 4.614567712009865 29.528212147450702 15.535300184607793 0 0 0
217 1 3.709369797421018 28.249475945395655 13.306439802625176 0 0 0
218 1 6.424963486011963 28.249475911585147 13.306439828281109 0 0 0
219 1 5.519765588715882 26.97073971855301 11.077577812461467 0 0 0
220 1 8.235359012433246 26.970739502941175 11.07757793490801 0 0 0
221 1 7.3301612373478635 25.69200338683633 8.848717207452234 0 0 0
222 1 10.045753974186697 25.692002568519346 8.848717512500107 0 0 0
223 1 9.140556643511399 24.413266810654118 6.619855093473999 0 0 0
224 1 11.856148523858012 24.41326493208145 6.619855468723042 0 0 0
225 1 10.950952039478459 23.134530048801075 4.390994491459178 0 0 0
226 1 13.666543559833533 23.13452722567051 4.390994638116458 0 0 0
227 1 12.761347745244118 21.85579349181068 2.1644365093686226 0 0 0
228 1 15.476939457822809 21.85579052982653 2.164436207565556 0 0 0
229 1 14.571743767512837 20.577057389260318 0.005542350180131315 0 0 0
230 1 17.287336002696826 20.577054790546736 0.005541588835455903 0 0 0
231 1 8.235358643610873 30.806947959335545 13.306440133930874 0 0 0
232 1 7.3301609069538145 29.5282118402548 11.07757800007318 0 0 0
233 1 10.04575194486942 29.528210076164324 11.077579097245824 0 0 0
234 1 9.14055511420909 28.249474505443786 8.848717775650757 0 0 0
235 1 11.856142371229344 28.24946922087709 8.848719919726658 0 0 0
236 1 10.950948032096596 26.970735664915114 6.619855934686192 0 0 0
237 1 13.66653212656597 26.970725624843812 6.619858242092856 0 0 0
238 1 12.761341442473983 25.691996026273706 4.390994950391642 0 0 0
239 1 15.476924818279983 25.69198244322279 4.390996140209775 0 0 0
240 1 14.57173637086996 24.413257509570393 2.1644357563215078 0 0 0
241 1 17.28732008632156 24.413242826294603 2.164434715714313 0 0 0
242 1 16.38213248530747 23.134520615160962 0.005539443013569009 0 0 0
243 1 19.097717652637623 23.1345053479127 0.005535366644393715 0 0 0
244 1 10.950938846758994 30.806939157765783 8.848721610049846 0 0 0
245 1 13.666506429892564 30.80691726238624 8.848731292767514 0 0 0
246 1 12.76132196539704 29.52819062537477 6.619860842131042 0 0 0
247 1 15.476885450504312 29.52815689053756 6.619870031392713 0 0 0
248 1 14.571709318781386 28.249440400000708 4.390998314091863 0 0 0
249 1 17.287273392903046 28.249399440691487 4.391003459237469 0 0 0
250 1 16.38210064737587 26.97069385998361 2.1644334146150808 0 0 0
251 1 19.097664214302213 26.970648096046578 2.164430752019708 0 0 0
252 1 18.192494866455622 25.691950202793794 0.005526804287830015 0 0 0
253 1 20.908061252803268 25.691897692186153 0.005514200822601284 0 0 0
254 1 19.097577281443733 30.80676385412986 4.391020953677824 0 0 0
255 1 18.192411214447027 29.528070708410212 2.1644272389258044 0 0 0
256 1 20.907955070742993 29.527984472908763 2.164421359688866 0 0 0
257 1 20.002800423449987 28.24930630737443 0.005496261427703212 0 0 0
258 1 22.718351857313824 28.249206014825962 0.005479658646239296 0 0 0
1352 1 10.950949780472671 0.11728156476362983 17.764163223192895 0 0 0
260 1 0.9937764504938501 1.396015867856264 6.619855045093238 0 0 0
1345 1 8.235359204337026 0.11727958630248736 22.221881379272 0 0 0
7370 1 32.67570292965472 15.462119151722252 8.84871947806726 0 0 0
263 1 0.9937760985466091 5.2322243209358925 8.848717156014235 0 0 0
1344 1 5.519765607255122 0.11727950192334902 22.2218812711908 0 0 0
265 1 2.804171914702331 3.953488111682687 6.619854990073205 0 0 0
266 1 1.898974131299986 2.6747519740056496 4.390994459460318 0 0 0
267 1 4.614567741424367 2.6747518946109965 4.390994465733363 0 0 0
268 1 3.7093698512509654 1.3960157344680062 2.164436701600924 0 0 0
269 1 6.424963859592174 1.3960155167942618 2.1644366925449456 0 0 0
5352 1 29.960102895537407 30.80691562274808 22.22191662149166 0 0 0
1209 1 27.243600546148294 0.11958100635878566 0.005804634745941484 0 0 0
272 1 0.9937760572130526 9.068432908376925 11.077577797410829 0 0 0
5315 1 24.528911969970512 30.806928914273662 22.2219027149083 0 0 0
274 1 2.8041718895643104 7.789696705251035 8.848717146010287 0 0 0
275 1 1.8989739942510888 6.5109605131277135 6.6198549883264945 0 0 0
276 1 4.61456771841842 6.510960504263746 6.619854986198971 0 0 0
277 1 3.7093698107210966 5.2322243062890506 4.3909944558644805 0 0 0
278 1 6.424963561235461 5.232224293959453 4.3909944647971715 0 0 0
279 1 5.519765619918573 3.9534881150226857 2.1644367102982014 0 0 0
280 1 8.23535970677056 3.9534878776288975 2.164436695589984 0 0 0
281 1 7.330161559369733 2.67475185304786 0.005542899583660824 0 0 0
282 1 10.045756824492972 2.6747507448631107 0.005542100265839512 0 0 0
283 1 0.9937760540439962 12.90464151498982 13.306439800323394 0 0 0
1186 1 24.52812283750349 0.11839827468952535 4.391313664768009 0 0 0
285 1 2.804171887162761 11.62590531215846 11.077577796430253 0 0 0
286 1 1.8989739723940395 10.347169110379976 8.848717145881292 0 0 0
287 1 4.614567720029228 10.347169109478326 8.848717145452827 0 0 0
288 1 3.7093698049807737 9.068432907135206 6.6198549854373745 0 0 0
289 1 6.42496355020042 9.06843290882152 6.619854985973494 0 0 0
290 1 5.519765633485371 7.789696706707008 4.390994455534742 0 0 0
291 1 8.235359390651467 7.7896966980957485 4.3909944642347005 0 0 0
292 1 7.330161445826171 6.5109605170564135 2.164436710893968 0 0 0
293 1 10.04575548485555 6.510960287796283 2.1644366982611993 0 0 0
294 1 9.14055736012335 5.23222425112415 0.005542900592865545 0 0 0
295 1 11.85615251420742 5.232223112946775 0.005542158009144442 0 0 0
296 1 0.9937760538689656 16.74085012329713 15.535300181049914 0 0 0
1165 1 16.381985642621753 0.11739900523730995 8.848781871889456 0 0 0
298 1 2.8041718869811785 15.46211392048579 13.306439800260115 0 0 0
299 1 1.8989739705283266 14.183377717749101 11.077577796421744 0 0 0
300 1 4.614567720078269 14.183377717654325 11.077577796391154 0 0 0
301 1 3.709369803649101 12.90464151489227 8.848717145474412 0 0 0
302 1 6.424963552952299 12.904641514925142 8.848717145458318 0 0 0
303 1 5.519765636739714 11.625905312021446 6.619854985295005 0 0 0
304 1 8.235359383955156 11.625905313652066 6.619854985869249 0 0 0
305 1 7.330161467013304 10.347169111422092 4.390994455428799 0 0 0
306 1 10.045755221765383 10.347169103205102 4.39099446217843 0 0 0
307 1 9.1405572816025 9.068432919683877 2.1644367083207943 0 0 0
308 1 11.85615122309661 9.06843273586075 2.1644366946086424 0 0 0
309 1 10.950953148347484 7.78969666947559 0.005542885432301757 0 0 0
310 1 13.666547965464694 7.789695649520334 0.00554229789023498 0 0 0
311 1 0.9937760538646228 20.577058731710377 17.764161133694014 0 0 0
7361 1 32.67569659002971 11.626036693994905 6.619903694504133 0 0 0
313 1 2.80417188696372 19.29832252889876 15.535300181051634 0 0 0
314 1 1.8989739704145272 18.01958632609834 13.306439800260089 0 0 0
315 1 4.614567719996543 18.019586326024967 13.3064398002927 0 0 0
316 1 3.7093698034846443 16.74085012325018 11.077577796406665 0 0 0
317 1 6.424963552715823 16.74085012283614 11.077577796552054 0 0 0
318 1 5.519765636430764 15.462113920241391 8.848717145515298 0 0 0
319 1 8.235359384693638 15.462113918899139 8.84871714584579 0 0 0
320 1 7.33016146917101 14.183377716977049 6.619854985408206 0 0 0
321 1 10.045755215618348 14.183377714943958 6.619854985991317 0 0 0
322 1 9.140557300343156 12.904641515230376 4.39099445540334 0 0 0
323 1 11.856151051723335 12.904641504652409 4.390994459277281 0 0 0
324 1 10.950953121243193 11.6259053196038 2.1644367030359546 0 0 0
325 1 13.66654696066758 11.625905212548398 2.1644366969684428 0 0 0
326 1 12.761348949874867 10.347169082603392 0.005542859784902652 0 0 0
327 1 15.476943255089779 10.347168454474764 0.0055424772072064634 0 0 0
328 1 0.9937760538278109 24.41326734015894 19.9930209357583 0 0 0
1150 1 13.666513954689597 0.11730228007428423 13.306458100771932 0 0 0
330 1 2.804171886954329 23.13453113730987 17.764161133705688 0 0 0
331 1 1.8989739704091073 21.85579493450288 15.535300181057071 0 0 0
332 1 4.61456771984433 21.855794934360585 15.535300181155433 0 0 0
333 1 3.709369803362368 20.577058731601845 13.306439800319012 0 0 0
334 1 6.424963551446565 20.577058730368595 13.30643980099395 0 0 0
335 1 5.519765635570883 19.298322528058545 11.077577796749193 0 0 0
336 1 8.235359378294483 19.298322521547043 11.077577799389145 0 0 0
337 1 7.3301614655631475 18.019586322130507 8.848717146577517 0 0 0
338 1 10.045755197885804 18.01958630225508 8.84871715204439 0 0 0
339 1 9.140557293335558 16.74085011238835 6.6198549868780265 0 0 0
340 1 11.856151017380325 16.740850078318033 6.619854992922013 0 0 0
341 1 10.95095312292256 15.462113903421407 4.390994455116541 0 0 0
342 1 13.666546849813361 15.46211386869417 4.390994462366785 0 0 0
343 1 12.761348953440093 14.183377704506578 2.164436695417476 0 0 0
344 1 15.47694271426179 14.18337767763432 2.164436701743774 0 0 0
345 1 14.571744772246767 12.904641504685683 0.005542839231686634 0 0 0
346 1 17.287338728765167 12.904641223895824 0.005542617698241474 0 0 0
347 1 0.9937760539257723 28.249475948507172 22.22188125422642 0 0 0
1149 1 10.950942815372708 0.11728585423170301 13.306444231304088 0 0 0
349 1 2.8041718868965733 26.97073974575154 19.993020935779416 0 0 0
350 1 1.8989739703487547 25.692003542948832 17.764161133705603 0 0 0
351 1 4.6145677196225465 25.69200354267258 17.76416113392563 0 0 0
352 1 3.7093698031719398 24.41326733991611 15.5353001812063 0 0 0
353 1 6.4249635490048655 24.413267337456716 15.535300183045589 0 0 0
354 1 5.519765633574868 23.134531135319026 13.306439801490379 0 0 0
355 1 8.235359359672607 23.13453111725467 13.306439812205499 0 0 0
356 1 7.330161452520176 21.855794921141012 11.077577802555714 0 0 0
357 1 10.045755116380263 21.855794840151184 11.077577837662602 0 0 0
358 1 9.140557245067876 20.57705867765677 8.84871716198784 0 0 0
359 1 11.856150815872018 20.577058465199883 8.848717223377243 0 0 0
360 1 10.950953020530585 19.29832239815462 6.6198550063348405 0 0 0
361 1 13.666546538575025 19.298322056841055 6.6198550623652705 0 0 0
362 1 12.761348827612702 18.019586133051355 4.39099445899826 0 0 0
363 1 15.476942369518005 18.01958574433516 4.3909944745233345 0 0 0
364 1 14.571744688657292 16.74084996286152 2.164436673139818 0 0 0
365 1 17.28733833168245 16.74084963759098 2.164436622743708 0 0 0
366 1 16.382140562244775 15.462113885350085 0.005542814119983039 0 0 0
367 1 19.097734367580266 15.462113492874787 0.00554257079747687 0 0 0
368 1 2.804171887005588 30.806948354072276 22.22188125426967 0 0 0
369 1 1.898973970227208 29.5282121514066 19.99302093565788 0 0 0
370 1 4.614567719326372 29.528212151029496 19.993020936144774 0 0 0
371 1 3.7093698028589364 28.249475948267825 17.764161133986548 0 0 0
372 1 6.42496354586905 28.249475944571827 17.764161137546026 0 0 0
373 1 5.519765630514338 26.970739742344584 15.535300183849165 0 0 0
374 1 8.235359327470746 26.970739709192465 15.535300211038457 0 0 0
375 1 7.330161424288188 25.692003513801886 13.306439819869125 0 0 0
376 1 10.045754907049872 25.692003310808044 13.306439949927892 0 0 0
377 1 9.140557088638603 24.413267175712974 11.077577878269443 0 0 0
378 1 11.856150060328615 24.413266431360846 11.077578222214399 0 0 0
379 1 10.95095253591942 23.134530576536317 8.84871732991467 0 0 0
380 1 13.66654494750837 23.13452893992047 8.848717832232984 0 0 0
381 1 12.76134792232581 21.855793743510265 6.6198551958716205 0 0 0
382 1 15.47694009178297 21.85579134689154 6.619855628057338 0 0 0
383 1 14.57174358811872 20.577057051165546 4.390994514398414 0 0 0
384 1 17.287335856898036 20.57705429920987 4.3909946710182854 0 0 0
385 1 16.382139614074426 19.298320928052117 2.1644364992406793 0 0 0
386 1 19.097732243817923 19.29831862743513 2.1644362831406365 0 0 0
387 1 18.192535866109953 18.0195852544848 0.005542486961295001 0 0 0
388 1 20.90812906817001 18.01958366343563 0.005542007561231968 0 0 0
389 1 8.235359292340478 30.806948305333353 17.764161186639463 0 0 0
390 1 7.330161386045689 29.528212106648255 15.535300222167796 0 0 0
391 1 10.045754587347236 29.52821177022345 15.535300526158395 0 0 0
392 1 9.140556785235491 28.249475624576856 13.306440039537778 0 0 0
393 1 11.856148376242059 28.249473991585752 13.306441174080014 0 0 0
394 1 10.95095117349235 26.970738257389943 11.07757859978065 0 0 0
395 1 13.666540076012494 26.970733502692113 11.0775809493164 0 0 0
396 1 12.761344466788076 25.691999329761522 8.848718644789379 0 0 0
397 1 15.476931468219755 25.69199075744091 8.84872149281472 0 0 0
398 1 14.571737948021436 24.413259507699664 6.619856547467367 0 0 0
399 1 17.287324359159996 24.413248069928546 6.619858988327095 0 0 0
400 1 16.382132963206953 23.134520519487154 4.390995110817861 0 0 0
401 1 19.097719621215937 23.134507364493558 4.390996359898836 0 0 0
402 1 18.192529344759528 21.855783977745386 2.164435712881135 0 0 0
403 1 20.90811683778563 21.855771502577813 2.1644351274314944 0 0 0
404 1 20.00292706020432 20.57704900084239 0.005540101120581615 0 0 0
405 1 22.718516864323426 20.577037800780836 0.005537626994689772 0 0 0
406 1 13.666531073246825 30.8069370033522 13.306448522586594 0 0 0
407 1 12.761336440360372 29.528202777391645 11.077583310185302 0 0 0
408 1 15.47691120802615 29.5281831211867 11.07759367692197 0 0 0
409 1 14.571721611008801 28.249454179825435 8.848725613307654 0 0 0
410 1 17.28729459602698 28.249426030527175 8.848735941429547 0 0 0
411 1 16.38210976365548 26.970704384244893 6.619863221035771 0 0 0
412 1 19.097682672279106 26.9706700463358 6.619872177594617 0 0 0
413 1 18.192502679164587 25.691957240674736 4.3909989087756225 0 0 0
414 1 20.90807569092215 25.691917693389097 4.391004304467263 0 0 0
415 1 20.002898322075346 24.41321610185127 2.1644334172773814 0 0 0
416 1 22.71847191769719 24.413173281871135 2.1644323243508623 0 0 0
417 1 21.81329902888822 23.134477044118064 0.005528693328315306 0 0 0
418 1 24.528878373032878 23.134431177492132 0.005519268317443592 0 0 0
419 1 19.09762441640393 30.806823951052586 8.848770717417601 0 0 0
420 1 18.192445563950333 29.5281076566995 6.619884266902457 0 0 0
421 1 20.908009215994174 29.528049950034664 6.619903082659835 0 0 0
422 1 20.00283329441931 28.24934230640606 4.391011394857004 0 0 0
423 1 22.71839311230482 28.249271697829837 4.391022994462665 0 0 0
424 1 21.813222820763052 26.970581428697663 2.1644278796796237 0 0 0
425 1 24.528782038885854 26.970491482158103 2.1644257385586716 0 0 0
426 1 23.623625783442797 25.69182058417929 0.00549886425111311 0 0 0
427 1 26.339196366572757 25.691718526493517 0.005483421846966775 0 0 0
428 1 24.528686441385982 30.80659325194057 4.391051359811447 0 0 0
429 1 23.62350505220145 29.527879970717752 2.1644187923157743 0 0 0
430 1 26.339058093576767 29.527738140777686 2.1644285621618575 0 0 0
431 1 25.433913121021703 28.24908663227039 0.005470202797839219 0 0 0
432 1 28.149492593897286 28.248940144710364 0.005473205298675402 0 0 0
433 1 0.9937761399366317 1.3960157254010204 11.077577823795604 0 0 0
1138 1 8.235358678747257 0.1172798894041307 17.7641614871802 0 0 0
5314 1 21.813320286909168 30.806937199205375 22.221893870558013 0 0 0
436 1 0.9937760604003817 5.232224301427429 13.306439802799426 0 0 0
7349 1 32.675624851650866 3.9551927992139557 2.1647532078760303 0 0 0