LAMMPS data file via write_data, version 2 Aug 2023, timestep = 113, units = metal

14401 atoms
3 atom types

0.08855496663849158 65.26285130006194 xlo xhi
0.11739852551862011 61.49649818282909 ylo yhi
-22.325489957803438 75.68468973338295 zlo zhi

Masses

1 183.84
2 1.008
3 4.0026

Atoms # atomic

1 1 0.9937535268249127 28.24948586845245 0.005480773541088803 0 0 0
1548 1 27.24450907781357 0.11741082019253685 8.848579402541871 0 0 0
3 1 0.9937535268248735 20.577098411288677 0.005480773541094244 0 0 0
4 1 0.9937535268248794 24.41329213987058 2.1643661527586056 0 0 0
1533 1 24.52891607983041 0.11739895593721995 13.30625604158377 0 0 0
6 1 2.804150647197756 23.13456089700993 0.005480773541088803 0 0 0
7 1 0.9937535268248749 28.249485868452474 4.390903737126099 0 0 0
3020 1 31.77050457316405 2.674861011236028 26.67959988778301 0 0 0
9 1 2.8041506471977575 26.970754625591837 2.1643661527585922 0 0 0
10 1 1.8989520870113148 25.692023382731204 0.005480773541094244 0 0 0
11 1 4.614547767570633 25.692023382731204 0.005480773541088803 0 0 0
12 1 2.804150647197754 30.806948354173734 4.390903737126092 0 0 0
13 1 1.898952087011315 29.528217111313104 2.1643661527585922 0 0 0
14 1 4.614547767570592 29.528217111313094 2.1643661527585922 0 0 0
15 1 3.7093492073841943 28.24948586845247 0.005480773541088803 0 0 0
16 1 6.424944887943559 28.249485868452496 0.005480773541077913 0 0 0
1532 1 21.813320008870303 0.11739906096172416 13.306256087032244 0 0 0
18 1 0.9937535268248754 12.904710954124862 0.005480773541105125 0 0 0
19 1 0.9937535268248769 16.740904682706773 2.1643661527586113 0 0 0
5351 1 27.24451177231058 30.806948354085737 22.221776896332994 0 0 0
21 1 2.804150647197754 15.462173439846135 0.005480773541094244 0 0 0
22 1 0.9937535268248752 20.57709841128868 4.390903737126092 0 0 0
7909 1 32.67570313335016 15.46217343984613 22.22177689626686 0 0 0
24 1 2.804150647197755 19.298367168428044 2.1643661527586056 0 0 0
25 1 1.898952087011314 18.019635925567407 0.005480773541094244 0 0 0
26 1 4.614547767570631 18.019635925567407 0.005480773541094244 0 0 0
27 1 0.9937535268248779 24.413292139870574 6.619735934740006 0 0 0
1521 1 19.097724723046156 0.11739853380771426 17.763989319673538 0 0 0
29 1 2.8041506471977558 23.134560897009933 4.390903737126099 0 0 0
30 1 1.898952087011316 21.855829654149304 2.1643661527586002 0 0 0
31 1 4.614547767570632 21.855829654149304 2.1643661527586002 0 0 0
32 1 3.709349207384192 20.577098411288677 0.005480773541094244 0 0 0
33 1 6.424944887943508 20.57709841128867 0.005480773541094244 0 0 0
34 1 0.9937535268248769 28.249485868452474 8.848570727155943 0 0 0
1520 1 16.382129049861245 0.11739852557167935 17.763989312166732 0 0 0
36 1 2.804150647197754 26.97075462559184 6.619735934740006 0 0 0
37 1 1.898952087011314 25.69202338273121 4.390903737126099 0 0 0
38 1 4.614547767570633 25.692023382731207 4.390903737126082 0 0 0
39 1 3.7093492073841934 24.413292139870574 2.1643661527585976 0 0 0
40 1 6.424944887943496 24.413292139870567 2.1643661527585976 0 0 0
41 1 5.519746327757074 23.13456089700993 0.005480773541088803 0 0 0
42 1 8.235342008316396 23.134560897009933 0.005480773541080638 0 0 0
43 1 2.804150647197755 30.806948354173734 8.848570727155943 0 0 0
44 1 1.8989520870113126 29.528217111313104 6.619735934740006 0 0 0
45 1 4.6145477675706275 29.5282171113131 6.619735934740006 0 0 0
46 1 3.7093492073841943 28.249485868452474 4.390903737126099 0 0 0
47 1 6.424944887943624 28.249485868452535 4.390903737126092 0 0 0
48 1 5.519746327757046 26.970754625591827 2.1643661527585976 0 0 0
49 1 8.23534200831526 26.970754625591173 2.1643661527585705 0 0 0
50 1 7.330143448129972 25.692023382731218 0.005480773541080636 0 0 0
51 1 10.04573912868978 25.692023382731392 0.005480773540811156 0 0 0
52 1 7.330143448127921 29.528217111312088 2.164366152758535 0 0 0
53 1 10.045739128622555 29.528217111275925 2.1643661527579208 0 0 0
54 1 9.140540568504102 28.249485868452933 0.005480773540639635 0 0 0
55 1 11.856136249092774 28.249485868462266 0.005480773524633905 0 0 0
1513 1 13.66653336943204 0.1173985255206416 22.221776896269024 0 0 0
57 1 0.9937535268248745 5.232323496961053 0.005480773541116006 0 0 0
58 1 0.9937535268248742 9.068517225542962 2.1643661527586167 0 0 0
1401 1 29.96006543371632 0.11759574823570133 4.390949705463197 0 0 0
60 1 2.8041506471977558 7.789785982682323 0.005480773541116006 0 0 0
61 1 0.9937535268248742 12.90471095412486 4.390903737126099 0 0 0
5157 1 27.24450897627459 30.806938391803765 8.848576095813687 0 0 0
63 1 2.804150647197754 11.625979711264225 2.1643661527586167 0 0 0
64 1 1.8989520870113086 10.347248468403594 0.005480773541105125 0 0 0
65 1 4.614547767570631 10.34724846840359 0.005480773541105125 0 0 0
66 1 0.9937535268248762 16.740904682706777 6.619735934740006 0 0 0
2744 1 26.33931321204547 2.674861011239048 26.67959988778815 0 0 0
68 1 2.804150647197754 15.462173439846135 4.390903737126099 0 0 0
69 1 1.8989520870113168 14.183442196985501 2.1643661527586167 0 0 0
70 1 4.61454776757063 14.1834421969855 2.1643661527586167 0 0 0
71 1 3.7093492073841903 12.904710954124862 0.005480773541094244 0 0 0
72 1 6.424944887943508 12.904710954124862 0.005480773541094244 0 0 0
73 1 0.9937535268248759 20.57709841128868 8.848570727155943 0 0 0
1400 1 27.244444121679027 0.11754892988626318 4.39092810985778 0 0 0
75 1 2.804150647197752 19.29836716842804 6.619735934740006 0 0 0
76 1 1.898952087011314 18.019635925567407 4.390903737126104 0 0 0
77 1 4.61454776757063 18.01963592556741 4.390903737126099 0 0 0
78 1 3.709349207384191 16.740904682706773 2.1643661527586113 0 0 0
79 1 6.424944887943509 16.740904682706777 2.1643661527586167 0 0 0
80 1 5.519746327757073 15.462173439846135 0.005480773541105125 0 0 0
81 1 8.235342008316383 15.462173439846135 0.005480773541094244 0 0 0
82 1 0.9937535268248754 24.413292139870574 11.077407673501453 0 0 0
5141 1 21.81332038346706 30.80694834732255 13.306255742477173 0 0 0
84 1 2.804150647197755 23.134560897009933 8.848570727155943 0 0 0
85 1 1.898952087011315 21.855829654149318 6.619735934740006 0 0 0
86 1 4.614547767570632 21.855829654149314 6.619735934740006 0 0 0
87 1 3.709349207384192 20.57709841128868 4.390903737126092 0 0 0
88 1 6.42494488794351 20.57709841128868 4.390903737126099 0 0 0
89 1 5.519746327757073 19.298367168428044 2.1643661527586056 0 0 0
90 1 8.235342008316383 19.29836716842804 2.1643661527586056 0 0 0
91 1 7.330143448129947 18.019635925567403 0.005480773541094244 0 0 0
92 1 10.04573912868926 18.019635925567403 0.005480773541094243 0 0 0
93 1 0.9937535268248731 28.249485868452474 13.306255732026823 0 0 0
5012 1 29.9600834115577 30.806847683443284 4.39092182716605 0 0 0
95 1 2.804150647197753 26.97075462559184 11.077407673501453 0 0 0
96 1 1.8989520870113177 25.692023382731204 8.848570727155943 0 0 0
97 1 4.614547767570632 25.692023382731207 8.848570727155943 0 0 0
98 1 3.7093492073841903 24.413292139870574 6.619735934740006 0 0 0
99 1 6.424944887943508 24.413292139870574 6.619735934740006 0 0 0
100 1 5.519746327757074 23.134560897009933 4.390903737126099 0 0 0
101 1 8.235342008316398 23.134560897009948 4.390903737126082 0 0 0
102 1 7.330143448129943 21.855829654149304 2.1643661527585976 0 0 0
103 1 10.045739128689053 21.855829654149147 2.1643661527585922 0 0 0
104 1 9.140540568502827 20.57709841128867 0.005480773541088801 0 0 0
105 1 11.856136249062171 20.57709841128868 0.005480773541034364 0 0 0
1381 1 24.528907286781656 0.1174130798881914 8.848577221318804 0 0 0
107 1 1.898952087011313 29.528217111313104 11.077407673501463 0 0 0
108 1 4.614547767570629 29.528217111313104 11.077407673501463 0 0 0
109 1 3.709349207384192 28.24948586845247 8.848570727155943 0 0 0
110 1 6.424944887943508 28.249485868452474 8.848570727155943 0 0 0
111 1 5.519746327757072 26.970754625591837 6.619735934740006 0 0 0
112 1 8.235342008316346 26.970754625591837 6.619735934739995 0 0 0
113 1 7.330143448129995 25.69202338273124 4.390903737126092 0 0 0
114 1 10.045739128690416 25.692023382732014 4.390903737126104 0 0 0
115 1 9.140540568502301 24.41329213987021 2.164366152758587 0 0 0
116 1 11.856136249048792 24.413292139860296 2.164366152758459 0 0 0
117 1 10.950937688875866 23.134560897009987 0.005480773540955425 0 0 0
118 1 13.66653336943751 23.134560897010545 0.005480773537537189 0 0 0
119 1 7.330143448129874 29.528217111313094 6.6197359347399845 0 0 0
120 1 10.045739128687115 29.528217111312845 6.619735934739065 0 0 0
121 1 9.140540568506557 28.24948586845464 4.390903737126005 0 0 0
122 1 11.856136249127964 28.24948586849586 4.390903737128636 0 0 0
123 1 10.95093768884305 26.970754625570418 2.1643661527583147 0 0 0
124 1 13.666533368778598 26.97075462511079 2.1643661527547167 0 0 0
125 1 12.761334809258747 25.692023382734117 0.005480773532679179 0 0 0
126 1 15.476930489983374 25.69202338281275 0.005480773354760889 0 0 0
1380 1 21.81331983386895 0.11739878389920914 8.848570739387261 0 0 0
1210 1 29.96004536626222 0.1176593536388294 0.005405402762988009 0 0 0
129 1 12.761334807753288 29.528217110393445 2.164366152755509 0 0 0
130 1 15.476930467051615 29.52821709553686 2.1643661522117283 0 0 0
131 1 14.571731930302976 28.24948586875048 0.005480773121985835 0 0 0
132 1 17.287327614615513 28.249485870284044 0.005480766106832383 0 0 0
1209 1 27.244444598493565 0.11754427457713133 0.00544255856922733 0 0 0
134 1 0.9937535268249208 1.396129768379184 2.164366152758633 0 0 0
1186 1 24.52889997645988 0.11741654025964404 4.390904728198926 0 0 0
4820 1 29.960075145972993 30.806820250330652 0.0054494110542957705 0 0 0
137 1 0.993753526824875 5.232323496961059 4.390903737126104 0 0 0
1165 1 16.382129046635228 0.1173985289187309 8.84857072953779 0 0 0
139 1 2.8041506471977495 3.9535922541004287 2.164366152758622 0 0 0
140 1 1.898952087011302 2.6748610112397997 0.005480773541116006 0 0 0
141 1 4.614547767570323 2.674861011239943 0.005480773541126889 0 0 0
142 1 0.993753526824873 9.068517225542958 6.619735934740017 0 0 0
1150 1 13.666533369385505 0.1173985255543178 13.306255732064662 0 0 0
144 1 2.804150647197753 7.789785982682326 4.390903737126104 0 0 0
145 1 1.8989520870113195 6.511054739821691 2.1643661527586273 0 0 0
146 1 4.614547767570627 6.511054739821693 2.1643661527586273 0 0 0
147 1 3.7093492073841863 5.232323496961058 0.005480773541116006 0 0 0
148 1 6.424944887943125 5.232323496961325 0.005480773541116009 0 0 0
149 1 0.9937535268248718 12.904710954124862 8.848570727155954 0 0 0
1149 1 10.950937688871047 0.11739852552208449 13.306255732028186 0 0 0
151 1 2.804150647197752 11.625979711264227 6.619735934740017 0 0 0
152 1 1.898952087011313 10.347248468403594 4.390903737126104 0 0 0
153 1 4.61454776757063 10.347248468403595 4.390903737126099 0 0 0
154 1 3.7093492073841894 9.068517225542962 2.1643661527586167 0 0 0
155 1 6.424944887943505 9.068517225542967 2.1643661527586167 0 0 0
156 1 5.519746327757071 7.789785982682326 0.005480773541116006 0 0 0
157 1 8.235342008316142 7.7897859826825595 0.005480773541105126 0 0 0
158 1 0.9937535268248725 16.740904682706777 11.077407673501463 0 0 0
933 1 16.382129015311165 0.11739855177522471 4.390903746614295 0 0 0
160 1 2.8041506471977513 15.462173439846135 8.848570727155943 0 0 0
161 1 1.8989520870113135 14.183442196985498 6.619735934740017 0 0 0
162 1 4.61454776757063 14.183442196985501 6.619735934740017 0 0 0
163 1 3.7093492073841894 12.90471095412486 4.390903737126104 0 0 0
164 1 6.424944887943508 12.90471095412486 4.390903737126099 0 0 0
165 1 5.519746327757073 11.625979711264225 2.1643661527586113 0 0 0
166 1 8.235342008316382 11.625979711264227 2.1643661527586056 0 0 0
167 1 7.330143448129937 10.347248468403599 0.005480773541094244 0 0 0
168 1 10.045739128689297 10.347248468403548 0.005480773541105122 0 0 0
169 1 0.9937535268248755 20.577098411288677 13.306255732026823 0 0 0
914 1 13.666533368992617 0.11739852582426064 8.84857072726614 0 0 0
171 1 2.804150647197755 19.29836716842804 11.077407673501453 0 0 0
172 1 1.8989520870113126 18.01963592556741 8.848570727155943 0 0 0
173 1 4.614547767570631 18.019635925567407 8.848570727155943 0 0 0
174 1 3.7093492073841894 16.740904682706777 6.619735934740006 0 0 0
175 1 6.424944887943509 16.740904682706773 6.619735934740017 0 0 0
176 1 5.519746327757072 15.462173439846135 4.390903737126099 0 0 0
177 1 8.235342008316385 15.462173439846135 4.390903737126099 0 0 0
178 1 7.330143448129947 14.183442196985494 2.1643661527586113 0 0 0
179 1 10.04573912868926 14.183442196985494 2.1643661527586056 0 0 0
180 1 9.14054056850282 12.904710954124864 0.005480773541094244 0 0 0
181 1 11.856136249062153 12.90471095412483 0.005480773541094243 0 0 0
182 1 0.993753526824876 24.413292139870574 15.535114724418245 0 0 0
694 1 19.09772436091402 0.11739890447984118 0.005480831881570369 0 0 0
184 1 2.804150647197755 23.134560897009933 13.306255732026823 0 0 0
185 1 1.898952087011315 21.855829654149314 11.077407673501453 0 0 0
186 1 4.614547767570632 21.855829654149314 11.077407673501463 0 0 0
187 1 3.709349207384191 20.577098411288677 8.848570727155943 0 0 0
188 1 6.424944887943508 20.577098411288677 8.848570727155943 0 0 0
189 1 5.519746327757072 19.29836716842804 6.619735934740017 0 0 0
190 1 8.235342008316383 19.298367168428044 6.619735934740006 0 0 0
191 1 7.330143448129948 18.01963592556741 4.390903737126092 0 0 0
192 1 10.045739128689252 18.019635925567407 4.390903737126099 0 0 0
193 1 9.14054056850282 16.740904682706773 2.1643661527586056 0 0 0
194 1 11.856136249062112 16.740904682706752 2.1643661527586113 0 0 0
195 1 10.950937688875698 15.462173439846135 0.005480773541094244 0 0 0
196 1 13.666533369435006 15.462173439846133 0.005480773541094241 0 0 0
197 1 0.9937535268248777 28.24948586845247 17.763989312165958 0 0 0
693 1 16.382129028473393 0.11739853717227033 0.005480764649931499 0 0 0
199 1 2.8041506471977558 26.970754625591837 15.535114724418245 0 0 0
200 1 1.898952087011315 25.692023382731207 13.306255732026823 0 0 0
201 1 4.61454776757063 25.692023382731207 13.306255732026823 0 0 0
202 1 3.709349207384192 24.41329213987058 11.077407673501453 0 0 0
203 1 6.42494488794351 24.41329213987058 11.077407673501453 0 0 0
204 1 5.519746327757074 23.134560897009933 8.848570727155943 0 0 0
205 1 8.235342008316383 23.134560897009933 8.848570727155943 0 0 0
206 1 7.330143448129946 21.855829654149314 6.619735934740017 0 0 0
207 1 10.045739128689243 21.8558296541493 6.619735934740006 0 0 0
208 1 9.140540568502821 20.57709841128868 4.390903737126092 0 0 0
209 1 11.856136249062054 20.577098411288603 4.390903737126115 0 0 0
210 1 10.950937688875628 19.29836716842797 2.1643661527586056 0 0 0
211 1 13.66653336943378 19.298367168426697 2.1643661527585514 0 0 0
212 1 12.761334809248572 18.0196359255674 0.005480773541080631 0 0 0
213 1 15.476930489807778 18.019635925567318 0.005480773540754037 0 0 0
214 1 2.804150647197754 30.806948354173734 17.763989312165958 0 0 0
215 1 1.898952087011316 29.5282171113131 15.535114724418245 0 0 0
216 1 4.614547767570633 29.528217111313104 15.535114724418245 0 0 0
217 1 3.7093492073841903 28.249485868452478 13.306255732026823 0 0 0
218 1 6.424944887943511 28.249485868452478 13.306255732026823 0 0 0
219 1 5.519746327757073 26.97075462559184 11.077407673501453 0 0 0
220 1 8.235342008316383 26.97075462559184 11.077407673501463 0 0 0
221 1 7.330143448129945 25.692023382731204 8.848570727155943 0 0 0
222 1 10.045739128689217 25.69202338273119 8.848570727155943 0 0 0
223 1 9.140540568502802 24.41329213987057 6.619735934740006 0 0 0
224 1 11.856136249061406 24.413292139870297 6.6197359347399685 0 0 0
225 1 10.950937688875834 23.134560897010065 4.39090373712612 0 0 0
226 1 13.66653336943128 23.13456089700738 4.390903737127426 0 0 0
227 1 12.761334809244042 21.855829654145197 2.164366152758505 0 0 0
228 1 15.476930489737896 21.85582965407516 2.1643661527556013 0 0 0
229 1 14.571731929621746 20.577098411288755 0.00548077353988588 0 0 0
230 1 17.287327610172344 20.577098411280236 0.005480773519158215 0 0 0
231 1 8.235342008316374 30.806948354173734 13.306255732026823 0 0 0
232 1 7.330143448129943 29.5282171113131 11.077407673501453 0 0 0
233 1 10.045739128689137 29.528217111313065 11.077407673501453 0 0 0
234 1 9.140540568502807 28.24948586845249 8.84857072715592 0 0 0
235 1 11.856136249060178 28.24948586845186 8.848570727155888 0 0 0
236 1 10.950937688874577 26.9707546255917 6.619735934739647 0 0 0
237 1 13.666533369406116 26.970754625583652 6.61973593473628 0 0 0
238 1 12.761334809259196 25.692023382740512 4.390903737128477 0 0 0
239 1 15.47693048961478 25.692023382602155 4.390903737205798 0 0 0
240 1 14.57173192938264 24.413292139661717 2.164366152754267 0 0 0
241 1 17.28732760722973 24.41329213683996 2.164366152595538 0 0 0
242 1 16.382129050015198 23.13456089702278 0.005480773475143029 0 0 0
243 1 19.097724730034958 23.134560896402746 0.005480772477437187 0 0 0
244 1 10.950937688874335 30.806948354173734 8.848570727155431 0 0 0
245 1 13.666533369357344 30.806948354147167 8.848570727152795 0 0 0
246 1 12.761334809208906 29.528217111312582 6.619735934718032 0 0 0
247 1 15.476930488856295 29.528217111111047 6.619735934637589 0 0 0
248 1 14.571731929933202 28.249485868728293 4.390903737280554 0 0 0
249 1 17.287327599542923 28.249485860684008 4.390903740501132 0 0 0
250 1 16.382129040872663 26.970754617922406 2.1643661524324096 0 0 0
251 1 19.0977246442926 26.970754539170432 2.1643661457473393 0 0 0
252 1 18.192526170542813 25.692023382789568 0.005480770755366515 0 0 0
253 1 20.9081218203428 25.69202334124309 0.005480737702005193 0 0 0
254 1 19.09772430266972 30.806948029200242 4.390903834633687 0 0 0
255 1 18.192525933175265 29.528216918396897 2.164366136741727 0 0 0
256 1 20.9081202441926 29.528215499812735 2.164366004913445 0 0 0
257 1 20.002923204181176 28.249485786887014 0.005480689099740109 0 0 0
258 1 22.71851793209028 28.249484424061286 0.005480035367068336 0 0 0
259 1 24.528899963091956 30.806926506531095 0.0054724234493610715 0 0 0
260 1 0.9937535268248784 1.3961297683791571 6.619735934740023 0 0 0
458 1 10.950937687827908 0.11739852613760506 0.005480773585162048 0 0 0
3019 1 29.054908892604956 2.6748610112376308 26.679599887785688 0 0 0
263 1 0.993753526824876 5.232323496961055 8.848570727155954 0 0 0
444 1 8.235342008303249 0.11739852552637373 4.390903737131784 0 0 0
265 1 2.804150647197755 3.9535922541004225 6.619735934740023 0 0 0
266 1 1.8989520870113104 2.674861011239791 4.390903737126115 0 0 0
267 1 4.614547767570664 2.674861011239776 4.390903737126104 0 0 0
268 1 3.709349207384245 1.396129768379136 2.1643661527586056 0 0 0
269 1 6.424944887945734 1.3961297683779543 2.164366152757567 0 0 0
271 1 8.23534200829876 0.11739852553205832 0.0054807735387256 0 0 0
1549 1 29.960103733814506 0.11741648872790449 8.848581399950444 0 0 0
272 1 0.9937535268248782 9.068517225542958 11.07740767350148 0 0 0
5315 1 24.528916091436116 30.806948353814274 22.22177689673425 0 0 0
274 1 2.8041506471977558 7.7897859826823295 8.848570727155954 0 0 0
275 1 1.898952087011314 6.511054739821692 6.619735934740023 0 0 0
276 1 4.614547767570629 6.511054739821691 6.619735934740017 0 0 0
277 1 3.7093492073841903 5.23232349696106 4.390903737126115 0 0 0
278 1 6.424944887943532 5.232323496961039 4.390903737126104 0 0 0
279 1 5.51974632775704 3.9535922541004465 2.164366152758652 0 0 0
280 1 8.23534200831896 3.9535922540986483 2.164366152757398 0 0 0
281 1 7.330143448136288 2.674861011235839 0.005480773541088699 0 0 0
282 1 10.045739128691286 2.674861011237719 0.00548077353786031 0 0 0
283 1 0.993753526824875 12.904710954124864 13.306255732026829 0 0 0
1632 1 16.382129049929965 0.11739852557782891 22.221776896338035 0 0 0
285 1 2.804150647197756 11.625979711264225 11.07740767350148 0 0 0
286 1 1.8989520870113148 10.347248468403594 8.848570727155954 0 0 0
287 1 4.614547767570632 10.347248468403595 8.848570727155943 0 0 0
288 1 3.7093492073841903 9.068517225542962 6.619735934740017 0 0 0
289 1 6.424944887943508 9.068517225542962 6.619735934740017 0 0 0
290 1 5.519746327757069 7.789785982682327 4.390903737126104 0 0 0
291 1 8.23534200831641 7.789785982682305 4.390903737126082 0 0 0
292 1 7.330143448129917 6.511054739821714 2.164366152758652 0 0 0
293 1 10.045739128691098 6.511054739820122 2.164366152757619 0 0 0
294 1 9.14054056850858 5.2323234969565515 0.00548077354108054 0 0 0
295 1 11.856136249045033 5.232323496971024 0.005480773538842555 0 0 0
296 1 0.9937535268248776 16.740904682706773 15.535114724418245 0 0 0
1633 1 19.097724730444437 0.11739852568226758 22.221776896448766 0 0 0
298 1 2.804150647197755 15.462173439846135 13.306255732026823 0 0 0
299 1 1.8989520870113181 14.183442196985498 11.077407673501463 0 0 0
300 1 4.614547767570631 14.183442196985494 11.07740767350148 0 0 0
301 1 3.7093492073841894 12.904710954124862 8.848570727155954 0 0 0
302 1 6.424944887943509 12.90471095412486 8.848570727155954 0 0 0
303 1 5.519746327757069 11.625979711264225 6.619735934740017 0 0 0
304 1 8.235342008316385 11.625979711264224 6.619735934740017 0 0 0
305 1 7.330143448129945 10.347248468403595 4.390903737126104 0 0 0
306 1 10.045739128689277 10.347248468403574 4.390903737126092 0 0 0
307 1 9.140540568502855 9.068517225542925 2.1643661527585976 0 0 0
308 1 11.856136249062212 9.068517225542976 2.1643661527585465 0 0 0
309 1 10.95093768888004 7.789785982677645 0.005480773541012566 0 0 0
310 1 13.666533369397234 7.7897859827285965 0.005480773541350801 0 0 0
311 1 0.9937535268248758 20.577098411288677 17.763989312165958 0 0 0
7361 1 32.67570313330344 11.625979711666256 6.619735934766883 0 0 0
313 1 2.804150647197753 19.29836716842804 15.535114724418245 0 0 0
314 1 1.8989520870113135 18.019635925567407 13.306255732026823 0 0 0
315 1 4.614547767570631 18.01963592556741 13.306255732026823 0 0 0
316 1 3.709349207384192 16.740904682706777 11.077407673501453 0 0 0
317 1 6.424944887943507 16.740904682706777 11.077407673501453 0 0 0
318 1 5.519746327757073 15.462173439846135 8.848570727155943 0 0 0
319 1 8.235342008316383 15.462173439846135 8.848570727155943 0 0 0
320 1 7.330143448129948 14.1834421969855 6.619735934740017 0 0 0
321 1 10.04573912868926 14.183442196985498 6.619735934740006 0 0 0
322 1 9.140540568502823 12.90471095412486 4.390903737126099 0 0 0
323 1 11.856136249062123 12.90471095412487 4.390903737126099 0 0 0
324 1 10.95093768887572 11.6259797112642 2.1643661527586002 0 0 0
325 1 13.666533369434854 11.625979711264469 2.1643661527586575 0 0 0
326 1 12.761334809248687 10.347248468403409 0.005480773541034408 0 0 0
327 1 15.476930489807085 10.347248468405606 0.005480773541651877 0 0 0
328 1 0.9937535268248756 24.41329213987057 19.992876435351434 0 0 0
1640 1 21.813320407855073 0.11739853641548616 17.763989321226045 0 0 0
330 1 2.804150647197753 23.134560897009933 17.763989312165958 0 0 0
331 1 1.8989520870113163 21.855829654149304 15.535114724418245 0 0 0
332 1 4.614547767570632 21.855829654149314 15.535114724418234 0 0 0
333 1 3.709349207384191 20.57709841128868 13.306255732026823 0 0 0
334 1 6.424944887943507 20.57709841128868 13.306255732026829 0 0 0
335 1 5.519746327757073 19.298367168428044 11.077407673501463 0 0 0
336 1 8.235342008316385 19.298367168428044 11.077407673501463 0 0 0
337 1 7.330143448129948 18.01963592556741 8.848570727155943 0 0 0
338 1 10.045739128689256 18.01963592556741 8.848570727155943 0 0 0
339 1 9.14054056850282 16.740904682706777 6.619735934740006 0 0 0
340 1 11.856136249062128 16.74090468270677 6.619735934740017 0 0 0
341 1 10.950937688875694 15.462173439846131 4.390903737126099 0 0 0
342 1 13.666533369434994 15.46217343984611 4.390903737126099 0 0 0
343 1 12.761334809248565 14.183442196985498 2.1643661527586113 0 0 0
344 1 15.476930489807883 14.183442196985439 2.1643661527586056 0 0 0
345 1 14.57173192962144 12.904710954124907 0.005480773541116011 0 0 0
346 1 17.2873276101802 12.90471095412552 0.005480773541023493 0 0 0
347 1 0.9937535268248694 28.24948586845247 22.22177689626686 0 0 0
1641 1 24.528916090735596 0.11739853671704367 17.763989317975213 0 0 0
349 1 2.8041506471977558 26.970754625591837 19.992876435351434 0 0 0
350 1 1.8989520870113143 25.6920233827312 17.763989312165958 0 0 0
351 1 4.614547767570635 25.692023382731204 17.763989312165958 0 0 0
352 1 3.709349207384192 24.413292139870574 15.535114724418245 0 0 0
353 1 6.424944887943509 24.41329213987058 15.535114724418245 0 0 0
354 1 5.519746327757074 23.134560897009933 13.306255732026823 0 0 0
355 1 8.235342008316387 23.134560897009933 13.306255732026823 0 0 0
356 1 7.330143448129948 21.855829654149314 11.077407673501463 0 0 0
357 1 10.04573912868926 21.855829654149314 11.077407673501463 0 0 0
358 1 9.140540568502821 20.57709841128868 8.848570727155943 0 0 0
359 1 11.856136249062112 20.577098411288652 8.848570727155943 0 0 0
360 1 10.95093768887569 19.298367168428033 6.619735934740006 0 0 0
361 1 13.666533369434807 19.29836716842784 6.6197359347400555 0 0 0
362 1 12.761334809248513 18.019635925567343 4.390903737126104 0 0 0
363 1 15.47693048980681 18.019635925565883 4.390903737126289 0 0 0
364 1 14.571731929621212 16.740904682706425 2.164366152758587 0 0 0
365 1 17.28732761017992 16.74090468270517 2.164366152758546 0 0 0
366 1 16.38212904999431 15.46217343984617 0.005480773541080634 0 0 0
367 1 19.09772473055364 15.462173439846236 0.005480773541077904 0 0 0
368 1 2.804150647197752 30.806948354173734 22.22177689626686 0 0 0
369 1 1.898952087011315 29.528217111313097 19.99287643535145 0 0 0
370 1 4.614547767570635 29.528217111313097 19.992876435351462 0 0 0
371 1 3.7093492073841943 28.24948586845247 17.763989312165958 0 0 0
372 1 6.424944887943509 28.24948586845247 17.763989312165958 0 0 0
373 1 5.5197463277570735 26.97075462559184 15.535114724418234 0 0 0
374 1 8.235342008316385 26.970754625591837 15.535114724418234 0 0 0
375 1 7.330143448129951 25.69202338273121 13.306255732026813 0 0 0
376 1 10.045739128689256 25.692023382731207 13.306255732026823 0 0 0
377 1 9.14054056850282 24.413292139870574 11.077407673501463 0 0 0
378 1 11.856136249062063 24.41329213987053 11.077407673501485 0 0 0
379 1 10.950937688875662 23.13456089700991 8.848570727155943 0 0 0
380 1 13.666533369434054 23.134560897009255 8.848570727156165 0 0 0
381 1 12.761334809248122 21.855829654149 6.619735934740066 0 0 0
382 1 15.476930489797377 21.85582965413975 6.619735934742374 0 0 0
383 1 14.571731929618128 20.577098411285355 4.390903737126609 0 0 0
384 1 17.287327610120947 20.577098411203842 4.39090373713855 0 0 0
385 1 16.382129049979223 19.298367168406617 2.1643661527571827 0 0 0
386 1 19.097724730507803 19.298367168337624 2.164366152755253 0 0 0
387 1 18.19252617036723 18.01963592556903 0.005480773540359375 0 0 0
388 1 20.908121850926065 18.01963592557536 0.0054807735393031945 0 0 0
389 1 8.235342008316387 30.806948354173734 17.763989312165958 0 0 0
390 1 7.330143448129948 29.528217111313104 15.535114724418234 0 0 0
391 1 10.045739128689247 29.528217111313094 15.535114724418234 0 0 0
392 1 9.140540568502816 28.24948586845247 13.306255732026823 0 0 0
393 1 11.856136249061962 28.249485868452382 13.306255732026871 0 0 0
394 1 10.95093768887559 26.970754625591795 11.07740767350148 0 0 0
395 1 13.666533369432017 26.97075462559011 11.077407673502297 0 0 0
396 1 12.761334809247003 25.69202338273042 8.848570727156133 0 0 0
397 1 15.476930489769742 25.692023382706406 8.848570727165795 0 0 0
398 1 14.571731929600979 24.41329213985808 6.619735934742554 0 0 0
399 1 17.28732760972394 24.413292139491755 6.619735934849987 0 0 0
400 1 16.382129049831164 23.134560896856758 4.390903737155629 0 0 0
401 1 19.097724728026254 23.134560893425935 4.3909037377042175 0 0 0
402 1 18.192526169642402 21.85582965312152 2.1643661526828932 0 0 0
403 1 20.908121849096535 21.855829650397833 2.164366152556645 0 0 0
404 1 20.00292329075881 20.577098411397127 0.005480773498681452 0 0 0
405 1 22.71851897134552 20.577098411821567 0.005480773431881244 0 0 0
406 1 13.666533369428944 30.806948354170782 13.306255732028776 0 0 0
407 1 12.761334809244538 29.528217111311363 11.077407673502176 0 0 0
408 1 15.476930489709346 29.528217111261565 11.077407673529535 0 0 0
409 1 14.571731929564674 28.249485868427087 8.848570727161675 0 0 0
410 1 17.28732760887331 28.24948586765115 8.848570727545292 0 0 0
411 1 16.382129049185526 26.970754625121597 6.619735934870273 0 0 0
412 1 19.097724714418124 26.97075461292819 6.619735939292301 0 0 0
413 1 18.192526163666766 25.692023376639224 4.390903738412829 0 0 0
414 1 20.908121775485277 25.692023275760327 4.390903755344912 0 0 0
415 1 20.002923266561684 24.4132921055976 2.164366149753741 0 0 0
416 1 22.71851892043184 24.41329203266539 2.164366142704142 0 0 0
417 1 21.81332041235788 23.134560901280555 0.005480771537829306 0 0 0
418 1 24.52891609573048 23.13456091921304 0.00548076862655402 0 0 0
419 1 19.097724691837765 30.806948331211146 8.848570742180161 0 0 0
420 1 18.192526142438627 29.528217094506317 6.61973594177689 0 0 0
421 1 20.90812141389977 29.528216761808363 6.619736088254345 0 0 0
422 1 20.002923078780608 28.249485673040947 4.390903777192675 0 0 0
423 1 22.71851753753936 28.24948382926628 4.390904077426567 0 0 0
424 1 21.813319904120526 26.97075390887159 2.1643660836051457 0 0 0
425 1 24.528915103589565 26.97075259424833 2.1643659360657725 0 0 0
426 1 23.623717510367875 25.692023358208587 0.005480702812710416 0 0 0
427 1 26.339313212037695 25.692023525893095 0.00548062199271592 0 0 0
428 1 24.52890040719026 30.80692597789023 4.390907139279529 0 0 0
429 1 23.623711245687918 29.528208359418674 2.164365412165054 0 0 0
430 1 26.339300980590192 29.528193984448325 2.1643645891808303 0 0 0
431 1 25.43411269177548 28.24948180002332 0.005479195225730241 0 0 0
432 1 28.149707690665966 28.24947777321386 0.005477714065210233 0 0 0
433 1 0.9937535268248742 1.3961297683791583 11.07740767350148 0 0 0
1652 1 27.244511789284623 0.11739895121214049 13.306255906657851 0 0 0
5314 1 21.813320411081556 30.8069483541402 22.22177689631234 0 0 0
436 1 0.9937535268248759 5.2323234969610555 13.306255732026845 0 0 0
7349 1 32.675701442814365 3.9536170653758704 2.164364501502423 0 0 0