LAMMPS data file via write_data, version 2 Aug 2023, timestep = 731, units = metal

14401 atoms
3 atom types

0.08884170446265746 65.26256456223787 xlo xhi
0.11769781421595603 61.496198894131865 ylo yhi
-22.326374483583002 75.68557425916246 zlo zhi

Masses

1 183.84
2 1.008
3 4.0026

Atoms # atomic

1 1 0.9940054779252221 28.249478766669405 0.005194392306999457 0 0 0
1548 1 27.24453814627661 0.11777146709318909 8.84959495636006 0 0 0
3 1 0.9940314671455727 20.577180250894063 0.005192638904041897 0 0 0
4 1 0.9940167018300681 24.41332354623224 2.1641117184867715 0 0 0
1533 1 24.528859642829957 0.11793832486998512 13.306828641684856 0 0 0
6 1 2.804381850595672 23.134602125885635 0.0051923398347841045 0 0 0
7 1 0.9940062971294056 28.249479899355762 4.390690642992214 0 0 0
1532 1 21.813240378491805 0.11792561463177802 13.306586085797008 0 0 0
9 1 2.804375989963097 26.970757768840663 2.1641075949302984 0 0 0
10 1 1.899194344330578 25.692037257715956 0.0051932237366924625 0 0 0
11 1 4.614743459716729 25.692036591771522 0.005191989217648111 0 0 0
12 1 2.8043740897663763 30.80692408050969 4.390680041330023 0 0 0
13 1 1.899189372586326 29.528202487712445 2.164104670477758 0 0 0
14 1 4.614753456236084 29.52820687201889 2.1640992970120676 0 0 0
15 1 3.7095628444743127 28.24947894265167 0.00519268549559168 0 0 0
16 1 6.4251292425008515 28.24948862810873 0.005190082229953035 0 0 0
7220 1 32.6755479715442 26.9711728407972 2.1645177217270257 0 0 0
18 1 0.9940636629478354 12.904914095247001 0.005191687929035876 0 0 0
19 1 0.994047515068998 16.741047858413253 2.1641140076661625 0 0 0
5351 1 27.24440879569567 30.806654805373874 22.222132208738145 0 0 0
21 1 2.8044120879430348 15.462332374003982 0.005192040188884351 0 0 0
22 1 0.9940315265745897 20.577181934882127 4.390702502132225 0 0 0
7909 1 32.67568086558575 15.46235775347179 22.22195376015621 0 0 0
24 1 2.8043964553893357 19.2984642659784 2.164113724093586 0 0 0
25 1 1.8992219113382647 18.01975557424395 0.0051922210155362055 0 0 0
26 1 4.614759479490396 18.01974798164221 0.005191442330475607 0 0 0
27 1 0.9940187938197956 24.413323104988923 6.619591897707954 0 0 0
5323 1 29.960013511868585 30.806571855960176 17.764447227666473 0 0 0
29 1 2.8043842844286884 23.13460436714188 4.390699537663923 0 0 0
30 1 1.8992066060494324 21.855891315018468 2.164113005908533 0 0 0
31 1 4.614748535855698 21.85588577175645 2.1641109735513333 0 0 0
32 1 3.7095700431528105 20.57717296241754 0.005191782688593448 0 0 0
33 1 6.4251120551432965 20.577168972758187 0.00519043314144661 0 0 0
34 1 0.9940098625275476 28.249471278468427 8.848477454060168 0 0 0
8101 1 32.67568862843485 0.11808105685843116 17.764744704639316 0 0 0
36 1 2.8043755239998975 26.97075410504576 6.6195856608499 0 0 0
37 1 1.8991956246930979 25.692039255210187 4.390696118850484 0 0 0
38 1 4.614743086000876 25.692036712770314 4.390692059786926 0 0 0
39 1 3.709561604843679 24.41331874195092 2.1641096037706893 0 0 0
40 1 6.425111407933564 24.41331985518512 2.1641053162229054 0 0 0
41 1 5.519926184902203 23.134599952126543 0.005191221265090193 0 0 0
42 1 8.23547919008931 23.134603986536696 0.005189837803585863 0 0 0
43 1 2.80436888836951 30.806909496884398 8.848467816207352 0 0 0
44 1 1.8991884162362112 29.528195537026598 6.61957797127215 0 0 0
45 1 4.61474002781585 29.528195593766426 6.6195711099014485 0 0 0
46 1 3.7095586182333204 28.249478205163584 4.390686979945829 0 0 0
47 1 6.425116370067531 28.249483553379182 4.3906759876125525 0 0 0
48 1 5.519931171735854 26.97076093708958 2.1641027095869214 0 0 0
49 1 8.235498150579367 26.9707728493111 2.164093246604193 0 0 0
50 1 7.33030175306067 25.69204387871878 0.00519038917839916 0 0 0
51 1 10.045875826020668 25.692059433290826 0.0051864660686547276 0 0 0
52 1 7.330329663921312 29.528221207839177 2.1640872828049518 0 0 0
53 1 10.045924724262651 29.52824354379293 2.1640665511224233 0 0 0
54 1 9.140713623185967 28.249507341963195 0.0051832439481293655 0 0 0
55 1 11.856324007132859 28.249534125048907 0.005171113095710548 0 0 0
7217 1 32.67560989967996 23.135043126013116 0.005171324808311224 0 0 0
57 1 0.9940660342502274 5.232604221780931 0.0051920443042650375 0 0 0
58 1 0.9940705770627245 9.068766407877796 2.1641091333275284 0 0 0
5261 1 29.96003496550646 30.806723017173695 13.30684565332126 0 0 0
60 1 2.804436152189542 7.7900482040779435 0.0051926715905036116 0 0 0
61 1 0.9940604135467477 12.904912127027202 4.390701382306916 0 0 0
5157 1 27.244498758848888 30.80694232408873 8.849178455403493 0 0 0
63 1 2.8044263549701522 11.626195678681256 2.16411257867129 0 0 0
64 1 1.8992505780967033 10.347484094039087 0.0051919625610177995 0 0 0
65 1 4.614791283924864 10.347478217911316 0.005192909476581539 0 0 0
66 1 0.9940457459589466 16.7410474959889 6.619597279369019 0 0 0
1521 1 19.097598522276233 0.1179189049211957 17.76418052709981 0 0 0
68 1 2.8044121770017565 15.462331478974658 4.390703412688426 0 0 0
69 1 1.8992374767296223 14.183623237078903 2.164113556847347 0 0 0
70 1 4.614776820023528 14.183615748663462 2.16411352623686 0 0 0
71 1 3.7096017254858205 12.904907535093306 0.0051921705672333 0 0 0
72 1 6.425141174035679 12.904899131466449 0.005192278859589933 0 0 0
73 1 0.9940320094180306 20.577181223438664 8.84848948587289 0 0 0
1520 1 16.382053102193183 0.1178637076820517 17.76411926171988 0 0 0
75 1 2.8043983127216947 19.2984649273298 6.619596868115383 0 0 0
76 1 1.8992219421335526 18.01975609894815 4.390703480811495 0 0 0
77 1 4.614763590126765 18.01974869177037 4.390702560268526 0 0 0
78 1 3.7095866161103466 16.74104003385202 2.164113884889705 0 0 0
79 1 6.425127427112834 16.74103291964025 2.164112022629973 0 0 0
80 1 5.519949825236215 15.462324475891458 0.00519146979124394 0 0 0
81 1 8.235492034539973 15.462316835036292 0.0051904404455143 0 0 0
82 1 0.9940210266437172 24.413319087189176 11.07738011788069 0 0 0
5141 1 21.813223185484247 30.806714054303487 13.306461515487927 0 0 0
84 1 2.8043858260988284 23.13460240108324 8.848487629357898 0 0 0
85 1 1.8992083299705906 21.85589206545345 6.6195952465242796 0 0 0
86 1 4.6147520682308425 21.85588572839534 6.619593679198449 0 0 0
87 1 3.7095735668352363 20.577174703052307 4.39070158654763 0 0 0
88 1 6.42511777074842 20.577169697697546 4.39069834282279 0 0 0
89 1 5.519937273128516 19.298457867064673 2.164111752557409 0 0 0
90 1 8.235482956587985 19.298454296398848 2.164108150841597 0 0 0
91 1 7.330300780193298 18.019742229619325 0.00518996493576616 0 0 0
92 1 10.045849759584616 18.019738909658326 0.005188470775449126 0 0 0
93 1 0.9940152282505248 28.249463607348773 13.306272976031364 0 0 0
297 1 0.08886694187130585 15.462338116961547 13.306276313778785 0 0 0
95 1 2.8043751909399637 26.970746515700004 11.077377440644458 0 0 0
96 1 1.899197225704498 25.692034685525087 8.848484044945309 0 0 0
97 1 4.61474113556962 25.692029809604982 8.848481652758744 0 0 0
98 1 3.7095631715081097 24.41331745993787 6.619590564437556 0 0 0
99 1 6.425110318547589 24.413314663923554 6.619584609128433 0 0 0
100 1 5.519929373547404 23.134600599459908 4.390695784490855 0 0 0
101 1 8.235480139614282 23.13460126143316 4.390688386271897 0 0 0
102 1 7.330295425366303 21.85588447986692 2.1641070914261338 0 0 0
103 1 10.045851639328466 21.855888676923872 2.1641011708233404 0 0 0
104 1 9.14066199752611 20.577169468630903 0.005188875657425133 0 0 0
105 1 11.85622362585576 20.57717493530886 0.005187309214249756 0 0 0
1513 1 13.666546644912417 0.11779690955675338 22.221916432965795 0 0 0
107 1 1.8991898473794444 29.528183718141833 11.077371845868496 0 0 0
108 1 4.614729726332516 29.528180297163637 11.077368617989425 0 0 0
109 1 3.709553981130656 28.24946769486849 8.848476025920256 0 0 0
110 1 6.425100801689513 28.249466000590562 8.848465922237494 0 0 0
111 1 5.5199240373533796 26.97075284376761 6.6195786507652 0 0 0
112 1 8.235478176584394 26.97075550194136 6.6195636845032215 0 0 0
113 1 7.330296374464353 25.69203989294049 4.390682798193664 0 0 0
114 1 10.045859853313901 25.6920490068891 4.390667304804963 0 0 0
115 1 9.140671857725978 24.413328138749257 2.164097959877042 0 0 0
116 1 11.856246667793283 24.413343623850288 2.1640870276508943 0 0 0
117 1 10.951045611448613 23.13461502423564 0.00518749487158374 0 0 0
118 1 13.66662829220229 23.13463312726959 0.005183752451418905 0 0 0
119 1 7.330296681118365 29.52820025421555 6.619553104070728 0 0 0
120 1 10.045861074478099 29.52820666378953 6.619525559040572 0 0 0
121 1 9.140685033175025 28.24949556748798 4.390656114871557 0 0 0
122 1 11.856267382838547 28.249510845744076 4.390631031668564 0 0 0
123 1 10.951081850993894 26.970792742749992 2.1640780240705295 0 0 0
124 1 13.66668343475757 26.970817971863735 2.164061702466863 0 0 0
125 1 12.761470259916274 25.692083272957145 0.005179402631032699 0 0 0
126 1 15.47708421913746 25.692117169563346 0.005174075244855917 0 0 0
312 1 0.08885430891703829 19.29847082752581 15.535168454176414 0 0 0
329 1 0.08884682581738519 23.13460810356241 17.76406288133815 0 0 0
129 1 12.761540299218769 29.528269176718503 2.164045394650978 0 0 0
130 1 15.47717066402377 29.528295105025823 2.1640549710252435 0 0 0
131 1 14.571961699801701 28.24957128203639 0.005164936912969573 0 0 0
132 1 17.28761307753262 28.24963066856604 0.005192345221716651 0 0 0
348 1 0.08884546751594787 26.970753198140585 19.992961488738185 0 0 0
134 1 0.9940506167285281 1.3964257576879027 2.1640937347945988 0 0 0
8343 1 32.67566162032497 0.11809299863132365 22.22233809468933 0 0 0
461 1 0.08887813663588437 11.626201613555452 15.535171728848983 0 0 0
137 1 0.994071304139527 5.232605005796852 4.390686144402988 0 0 0
7425 1 32.675633890488676 30.806554784307878 17.76448863162816 0 0 0
139 1 2.8044382457164656 3.953880969741953 2.1641038172186935 0 0 0
140 1 1.8992452408075302 2.6751567490160215 0.005192367803207803 0 0 0
141 1 4.614815138668746 2.675159516295404 0.005194158825357907 0 0 0
142 1 0.9940698752145883 9.068767812687204 6.619590269205944 0 0 0
1512 1 10.951014968861331 0.11777043670125643 22.221894915008342 0 0 0
144 1 2.8044355649024615 7.790046171018518 4.390695591967228 0 0 0
145 1 1.899254022291485 6.511326490595309 2.1641069021823176 0 0 0
146 1 4.614804304787355 6.511323618646675 2.164108924558279 0 0 0
147 1 3.7096230135001096 5.232605913116633 0.005193793415240061 0 0 0
148 1 6.425179655932891 5.232600438239723 0.0051957001858051 0 0 0
149 1 0.9940587606526718 12.904912619130984 8.848489497028012 0 0 0
7409 1 32.67566223096702 26.970452067169383 15.535368144280124 0 0 0
151 1 2.8044251015509443 11.62619469911794 6.619595227909715 0 0 0
152 1 1.899248655705755 10.347481724656861 4.3906991748214335 0 0 0
153 1 4.6147911790970095 10.347475889221961 4.390699807111658 0 0 0
154 1 3.7096145694650993 9.068762950052472 2.164111098296485 0 0 0
155 1 6.425160047795331 9.068755192689748 2.1641113068881923 0 0 0
156 1 5.519983059544918 7.790042305302569 0.005194379659419503 0 0 0
157 1 8.235534725050996 7.790031656850032 0.005196258516225291 0 0 0
158 1 0.9940451363944697 16.741047141719257 11.077382947188315 0 0 0
478 1 0.08886281138823142 15.462335885119591 17.76406123194686 0 0 0
160 1 2.804412282934143 15.462331345945536 8.84849055058164 0 0 0
161 1 1.8992358659921578 14.183622218978412 6.619596832300482 0 0 0
162 1 4.614778544912297 14.183615107837124 6.619596756674864 0 0 0
163 1 3.709601896535936 12.904905526473172 4.390702292075009 0 0 0
164 1 6.425144533292426 12.904898186888088 4.390700969696584 0 0 0
165 1 5.519967313416626 11.626188402868173 2.1641127092452574 0 0 0
166 1 8.23551302673012 11.626178952330518 2.1641112781312044 0 0 0
167 1 7.330335385291272 10.347468607623632 0.005194128185058253 0 0 0
168 1 10.045887240573396 10.34745509637337 0.005194980989507706 0 0 0
169 1 0.9940328337971095 20.577180316644583 13.306275504673518 0 0 0
1381 1 24.528934307764484 0.11780948355348547 8.849280211562364 0 0 0
171 1 2.80439928897504 19.298464371458614 11.077382823468536 0 0 0
172 1 1.8992221033316479 18.01975587748942 8.848490438274808 0 0 0
173 1 4.61476593190835 18.019748532494816 8.848490401936145 0 0 0
174 1 3.709588554539158 16.741039960029873 6.619597370516186 0 0 0
175 1 6.42513249161813 16.741033060253713 6.619596147064432 0 0 0
176 1 5.519953945816395 15.462324085975705 4.39070246035353 0 0 0
177 1 8.235498925871788 15.46231736393805 4.390699547102083 0 0 0
178 1 7.330318876996169 14.183607855077422 2.164111892765527 0 0 0
179 1 10.045867617547339 14.18359907740089 2.1641088583244366 0 0 0
180 1 9.140686847503277 12.904888827615794 0.00519232695903048 0 0 0
181 1 11.856241863159681 12.904875048790613 0.005191918548892935 0 0 0
182 1 0.994024588546597 24.413318551611464 15.535170388806664 0 0 0
7394 1 32.67569456084641 23.13443846171133 13.306289924456328 0 0 0
184 1 2.8043875975655266 23.134600790695973 13.306276287643547 0 0 0
185 1 1.8992094760041742 21.85589040616812 11.077382070116732 0 0 0
186 1 4.614753175482074 21.855883403529624 11.077382329403623 0 0 0
187 1 3.7095755774521515 20.577174034250476 8.848489502376182 0 0 0
188 1 6.425120617388144 20.577167482761443 8.848488177955325 0 0 0
189 1 5.51994204071445 19.298458109511845 6.61959553626608 0 0 0
190 1 8.235488885582798 19.298453023064845 6.619592223623269 0 0 0
191 1 7.330307757157519 18.0197427418741 4.390699699207691 0 0 0
192 1 10.045857310249692 18.01973894555142 4.390694682981473 0 0 0
193 1 9.140673516009619 16.7410270987258 2.1641087227615796 0 0 0
194 1 11.856228171389594 16.741022211744482 2.1641042845713594 0 0 0
195 1 10.951042636437558 15.462308818963411 0.005189551779729987 0 0 0
196 1 13.666603940041725 15.46229921986744 0.00518879608142099 0 0 0
197 1 0.9940221714329482 28.249464739664234 17.764069417192584 0 0 0
7381 1 32.67569595657106 19.298426430879157 11.077324902387268 0 0 0
199 1 2.804378855169779 26.970744520464756 15.535173048978931 0 0 0
200 1 1.8991997794814606 25.692030724375112 13.306275490045484 0 0 0
201 1 4.6147404227103355 25.692024476407934 13.306276116136312 0 0 0
202 1 3.709563225769884 24.41331304802741 11.0773805885725 0 0 0
203 1 6.42510721611951 24.413306510140554 11.077378275440012 0 0 0
204 1 5.519930212279176 23.134596451163695 8.848485521320914 0 0 0
205 1 8.23547813771285 23.134591907788824 8.84847993254217 0 0 0
206 1 7.330298821373448 21.85588155412635 6.619589182417906 0 0 0
207 1 10.045851059527184 21.85588027157552 6.619581041353461 0 0 0
208 1 9.140667332389926 20.57716800195216 4.390692464710573 0 0 0
209 1 11.856225157793885 20.577170168615606 4.390683606550693 0 0 0
210 1 10.951037158950712 19.298454234178003 2.1641031527709718 0 0 0
211 1 13.666602518516957 19.298457498213196 2.1640969870648243 0 0 0
212 1 12.761409665906575 18.019737529245372 0.005187472182382168 0 0 0
213 1 15.4769820200956 18.01973742993746 0.005187028575592628 0 0 0
214 1 2.8043749929149495 30.80689681894454 17.76407432247872 0 0 0
215 1 1.8991952886727406 29.52817881426139 15.535172911869862 0 0 0
216 1 4.614729095936687 29.52817374844145 15.535173986656968 0 0 0
217 1 3.7095523664820416 28.24945930906246 13.306274028120768 0 0 0
218 1 6.425091114212162 28.249452433021872 13.306270698806856 0 0 0
219 1 5.519917109679832 26.970741289166526 11.077374119361636 0 0 0
220 1 8.235462268784522 26.970735431463186 11.077364982396276 0 0 0
221 1 7.3302883514012205 25.692026471916478 8.84847354512338 0 0 0
222 1 10.045840659057456 25.692024218483205 8.848459361086936 0 0 0
223 1 9.14066316621187 24.41331521282857 6.619573229349593 0 0 0
224 1 11.856224025971986 24.41331842034826 6.619556463601207 0 0 0
225 1 10.951040032742682 23.134606941373967 4.390676730792727 0 0 0
226 1 13.666611167509023 23.134616543111196 4.390661694774643 0 0 0
227 1 12.761420284645656 21.855898544536988 2.1640931795119593 0 0 0
228 1 15.477002739588608 21.855913075735177 2.164083849111939 0 0 0
229 1 14.57179909183031 20.577184945705028 0.005185710031080812 0 0 0
230 1 17.287387812246386 20.577199388032234 0.005184213182041602 0 0 0
231 1 8.235438514065551 30.806884297258765 13.306255649441475 0 0 0
232 1 7.330272013735091 29.528176082168965 11.07735677179739 0 0 0
233 1 10.045817258374957 29.52816862172044 11.07733859506691 0 0 0
234 1 9.140652114901517 28.249465068383856 8.848447153787854 0 0 0
235 1 11.856208730355945 28.249461347997755 8.848424504551739 0 0 0
236 1 10.951040455167103 26.97076045424298 6.619541506170353 0 0 0
237 1 13.666611937922468 26.970763592178066 6.619519645901488 0 0 0
238 1 12.761435760148666 25.692062051945303 4.390647647526122 0 0 0
239 1 15.477023971602259 25.69207491313411 4.390632079526988 0 0 0
240 1 14.571837071093 24.413364839769194 2.164074538028143 0 0 0
241 1 17.2874395555114 24.41339041435719 2.164066928802954 0 0 0
242 1 16.38222623714799 23.134658936056187 0.005180055466328527 0 0 0
243 1 19.097832385130417 23.134696404746276 0.005179512323983143 0 0 0
244 1 10.951021459666059 30.806906585198213 8.848407935077278 0 0 0
245 1 13.666582636370155 30.80689199696133 8.848400496072983 0 0 0
246 1 12.761434634719903 29.528208977162944 6.619501317813119 0 0 0
247 1 15.47701591687454 29.528200104470912 6.619511223436206 0 0 0
248 1 14.571862210298706 28.24952308946993 4.390617468119291 0 0 0
249 1 17.287465923392105 28.24952990066374 4.390643821087511 0 0 0
250 1 16.382297764098595 26.970846639853193 2.1640601383760925 0 0 0
251 1 19.0979102157526 26.970883188299577 2.1640943571866917 0 0 0
252 1 18.19270722621741 25.692168716399284 0.005181839390307508 0 0 0
253 1 20.908316353154635 25.692250958277462 0.005212560523076638 0 0 0
497 1 0.08885211971028266 19.298471804818764 19.99295132297794 0 0 0
255 1 18.19279448940046 29.528326955070554 2.1641391060818393 0 0 0
256 1 20.908390500355885 29.52839037166958 2.164312016040187 0 0 0
257 1 20.003243168231236 28.249732123103698 0.005277994468793439 0 0 0
258 1 22.718812421853226 28.249885268526487 0.005419925666325014 0 0 0
518 1 0.08884710415868041 23.13461406076863 22.221845075524673 0 0 0
260 1 0.9940697927708585 1.3964402600555488 6.6195604134202615 0 0 0
1380 1 21.813337904219686 0.11781364182753086 8.848929346919954 0 0 0
7370 1 32.67568032275897 15.462334000251499 8.84839605960821 0 0 0
263 1 0.9940775587786252 5.23261599696656 8.848475659380378 0 0 0
1365 1 19.097650055862296 0.11789433305312165 13.306397940254492 0 0 0
265 1 2.8044406020547887 3.953888292698605 6.619577477433648 0 0 0
266 1 1.8992531148062866 2.6751584034825293 4.3906790213908105 0 0 0
267 1 4.6148129991313676 2.6751593125737068 4.390681199338606 0 0 0
268 1 3.709627570704634 1.396432597069667 2.164098928391773 0 0 0
269 1 6.425204836499043 1.396431940247871 2.16409757870504 0 0 0
5352 1 29.96002293109863 30.806620343054423 22.222170930764115 0 0 0
5322 1 27.244393443445333 30.806599494454883 17.76438488295301 0 0 0
272 1 0.9940705659776534 9.068772361310046 11.0773807884105 0 0 0
5315 1 24.528807934932427 30.80669436757308 22.222086203473946 0 0 0
274 1 2.804434973209626 7.790050836555483 8.848484243179026 0 0 0
275 1 1.8992557577458675 6.511330383656165 6.6195852667383495 0 0 0
276 1 4.614801100259138 6.511326889780194 6.619585558796982 0 0 0
277 1 3.7096228032513126 5.2326048618275385 4.390689969580896 0 0 0
278 1 6.425174876350318 5.232599873701984 4.390687584372468 0 0 0
279 1 5.519998692229005 3.953878946037446 2.1641051747437796 0 0 0
280 1 8.235566267753002 3.9538703684412138 2.164102633059718 0 0 0
281 1 7.330387160886302 2.675156164300285 0.005194143165694209 0 0 0
282 1 10.04596689660129 2.6751479300363066 0.005188898548615351 0 0 0
283 1 0.994057388236647 12.904912762585269 13.306276617464722 0 0 0
1364 1 16.382088952813405 0.11785336730188183 13.306288152448035 0 0 0
285 1 2.8044245071301277 11.62619615896748 11.07738253187407 0 0 0
286 1 1.8992477233754064 10.347483680181226 8.848487751633193 0 0 0
287 1 4.614790187594228 10.347478034936842 8.848487445959709 0 0 0
288 1 3.7096132545277967 9.068763276557668 6.619591854929062 0 0 0
289 1 6.425157571635635 9.06875736606881 6.619589147612749 0 0 0
290 1 5.51998146490378 7.790040642323296 4.390695294879253 0 0 0
291 1 8.235531598706642 7.790032544505875 4.390690730026282 0 0 0
292 1 7.330357263699436 6.511315659933926 2.1641086490637926 0 0 0
293 1 10.045921022356588 6.511300868119028 2.164105082928855 0 0 0
294 1 9.140743442926768 5.232589376474701 0.005196486287960179 0 0 0
295 1 11.856316768357901 5.232569131245509 0.0051910479634329045 0 0 0
296 1 0.9940438609225197 16.741046366909483 15.535168265602293 0 0 0
1353 1 13.666522878396815 0.11781729088449608 17.764089411368726 0 0 0
298 1 2.804412451990138 15.462331245671175 13.306275769385012 0 0 0
299 1 1.8992352921056204 14.183622482635805 11.077382981264963 0 0 0
300 1 4.614779197446706 14.183615870494101 11.077383043658442 0 0 0
301 1 3.7096018253036616 12.904905924252482 8.848489801727595 0 0 0
302 1 6.425145537260458 12.90489983581096 8.848488805956604 0 0 0
303 1 5.51996801369817 11.62618822551274 6.61959441395168 0 0 0
304 1 8.235513768180368 11.626181841998498 6.619590689618102 0 0 0
305 1 7.330336496683833 10.347468138568248 4.390697405602328 0 0 0
306 1 10.045887915341899 10.347458898040662 4.390691664841524 0 0 0
307 1 9.14071188439104 9.06874391659997 2.1641095862790065 0 0 0
308 1 11.856274990561705 9.068725717688178 2.164104716021093 0 0 0
309 1 10.95109621980997 7.7900142218514175 0.00519624557347426 0 0 0
310 1 13.666666534831922 7.789987487989706 0.005189588667423238 0 0 0
311 1 0.9940336921386114 20.577181800062313 17.764060772980066 0 0 0
270 1 5.520018533362675 0.11771386375540162 0.005190746715885395 0 0 0
313 1 2.8044012524846065 19.29846504735929 15.535168567951786 0 0 0
314 1 1.899222429127605 18.01975555990492 13.306275549220032 0 0 0
315 1 4.614768080142905 18.01974867397896 13.30627648770817 0 0 0
316 1 3.709589536717197 16.741039952193752 11.077383128226248 0 0 0
317 1 6.425134719723902 16.741033309650025 11.077383824597241 0 0 0
318 1 5.519956128732572 15.462324385659457 8.848490393956531 0 0 0
319 1 8.235502074415063 15.462318580422737 8.848489364737539 0 0 0
320 1 7.3303229797085745 14.183608446386375 6.619594930951665 0 0 0
321 1 10.045871548401747 14.183602854137515 6.619590762570514 0 0 0
322 1 9.140691833321576 12.904890318235275 4.390697197762771 0 0 0
323 1 11.856246045660066 12.904881870135979 4.390690740809099 0 0 0
324 1 10.951066813415785 11.62616646304599 2.1641080371623667 0 0 0
325 1 13.666630794516202 11.626149021427004 2.1641022715507825 0 0 0
326 1 12.76144965378067 10.347434465155917 0.005193442920718406 0 0 0
327 1 15.477020008142748 10.347408849883571 0.005187054895914683 0 0 0
328 1 0.9940283476318221 24.413323862004276 19.992956865099185 0 0 0
271 1 8.235608153218159 0.11771706104818401 0.005184008208050318 0 0 0
330 1 2.8043923945314333 23.13460403682614 17.764064101972927 0 0 0
331 1 1.8992118200552135 21.85589101779394 15.535169384945352 0 0 0
332 1 4.614757075552554 21.85588422758777 15.53517142832167 0 0 0
333 1 3.7095774739992797 20.577173613791107 13.306276395549313 0 0 0
334 1 6.425123167918733 20.57716603562664 13.306278085783239 0 0 0
335 1 5.519944040041238 19.298457142040952 11.077383359038118 0 0 0
336 1 8.235490968489072 19.298450470399537 11.07738368518486 0 0 0
337 1 7.330311496838897 18.01974202273982 8.848489660455733 0 0 0
338 1 10.045860676991191 18.019737200424903 8.848487487444745 0 0 0
339 1 9.140679856272682 16.74102756485273 6.61959313432011 0 0 0
340 1 11.856232687343228 16.741024118981784 6.619587679352195 0 0 0
341 1 10.951049949830995 15.462311354958665 4.390694422738862 0 0 0
342 1 13.666608848251352 15.462306089339434 4.390686993654014 0 0 0
343 1 12.76142528731979 14.18358857084734 2.164104407314624 0 0 0
344 1 15.476992983993801 14.183575520745727 2.164098471072204 0 0 0
345 1 14.57180745579892 12.90485651539055 0.005189973617731157 0 0 0
346 1 17.287381693418027 12.904836255629785 0.0051858367926682246 0 0 0
347 1 0.9940278265448811 28.249473922032518 22.221856578908106 0 0 0
1352 1 10.950999564817009 0.1177830345117491 17.764077813621007 0 0 0
349 1 2.8043869466487408 26.970751027393295 19.9929634611406 0 0 0
350 1 1.8992051923164959 25.692033476403548 17.764066706423872 0 0 0
351 1 4.614746916227933 25.692027245624537 17.764069907083652 0 0 0
352 1 3.7095666331056605 24.413312962515267 15.535172323942998 0 0 0
353 1 6.425109968181896 24.413304405673593 15.535174717732213 0 0 0
354 1 5.519931176806369 23.134593368917788 13.30627728971479 0 0 0
355 1 8.235477101247904 23.134584740679852 13.306277507391476 0 0 0
356 1 7.3302989147041995 21.85587633824688 11.07738144830229 0 0 0
357 1 10.04584845573184 21.85586983993835 11.077378595042138 0 0 0
358 1 9.14066921800612 20.577162397489072 8.848484812897599 0 0 0
359 1 11.856223059096061 20.577159248201447 8.848478614060348 0 0 0
360 1 10.951041074370547 19.298450407255196 6.619586254866992 0 0 0
361 1 13.66660054646293 19.298450398900826 6.6195770850111835 0 0 0
362 1 12.761414734232458 18.01973750806309 4.390687304505626 0 0 0
363 1 15.476981773650207 18.019737742091205 4.390677629196037 0 0 0
364 1 14.57179318286952 16.741017798835493 2.164098923601813 0 0 0
365 1 17.287369294578824 16.74101291042359 2.164092852952367 0 0 0
366 1 16.38217646209134 15.462288092197374 0.005187922791017602 0 0 0
367 1 19.097758834134723 15.462277057959023 0.005186661975250183 0 0 0
368 1 2.8043856859511678 30.80690631876532 22.221865584693102 0 0 0
369 1 1.8992035374503033 29.528184409425588 19.99296802454402 0 0 0
370 1 4.614739429951758 29.528179305106274 19.992972284655416 0 0 0
371 1 3.709558554396909 28.249460730941117 17.764072230400703 0 0 0
372 1 6.4250961771812705 28.249451818498557 17.764075743882948 0 0 0
373 1 5.519917823592343 26.9707372360363 15.535174563612747 0 0 0
374 1 8.235458807504013 26.970726202395824 15.535174923246002 0 0 0
375 1 7.330283136891374 25.69201616937536 13.306274420930583 0 0 0
376 1 10.045829365527437 25.692005708588642 13.306269949644642 0 0 0
377 1 9.140654897557233 24.413299869823728 11.077372378486789 0 0 0
378 1 11.856207381114599 24.413292508038946 11.077363003648625 0 0 0
379 1 10.951031332613491 23.134588871771307 8.8484702284552 0 0 0
380 1 13.66659127404873 23.134586269452384 8.848456894673454 0 0 0
381 1 12.761410926023283 21.855881785921266 6.619568867988096 0 0 0
382 1 15.476979802594553 21.855884420036748 6.619553825884346 0 0 0
383 1 14.571793258713146 20.57717551033894 4.390672027474947 0 0 0
384 1 17.28737274736431 20.57718225712676 4.390658772526286 0 0 0
385 1 16.382180262744647 19.29846316474314 2.1640899810863545 0 0 0
386 1 19.09776930625563 19.29847053627773 2.164082644902574 0 0 0
387 1 18.19256620107994 18.01973879588567 0.0051869277526271525 0 0 0
388 1 20.908159089046066 18.019743271211578 0.005186708649128141 0 0 0
389 1 8.235438613728773 30.80687785775565 17.76407945829704 0 0 0
390 1 7.330264311054232 29.528164237978384 15.535172461898636 0 0 0
391 1 10.045801504445826 29.528148819625542 15.53516963375761 0 0 0
392 1 9.140632555197373 28.24944225273175 13.306262989942581 0 0 0
393 1 11.856177319848827 28.249426701855214 13.30625410738776 0 0 0
394 1 10.951011575894116 26.97072752095799 11.077351100102781 0 0 0
395 1 13.66656579805131 26.970714468686502 11.077337957265646 0 0 0
396 1 12.76139930519996 25.69202090157014 8.848441306452184 0 0 0
397 1 15.476965519753094 25.692012987327885 8.848426709440206 0 0 0
398 1 14.571794052527606 24.41332158915969 6.619537825646051 0 0 0
399 1 17.28737404626323 24.41332122725087 6.619524799504757 0 0 0
400 1 16.382194292433766 23.13462748693201 4.390646525426406 0 0 0
401 1 19.097787745704146 23.13463816952951 4.390636562392402 0 0 0
402 1 18.192597115436115 21.855931241050833 2.1640751604980624 0 0 0
403 1 20.908197824096817 21.855954866087835 2.1640688895617566 0 0 0
404 1 20.00298523668761 20.577220227549617 0.005182878284401021 0 0 0
405 1 22.718582695881498 20.57725172439723 0.005180977978795982 0 0 0
406 1 13.66651595269996 30.80684114502969 13.306246086703318 0 0 0
407 1 12.761365576325078 29.52815324246286 11.07732429939684 0 0 0
408 1 15.476921584560749 29.52812689431746 11.077332186495648 0 0 0
409 1 14.571772455370207 28.24945009188475 8.848412209616235 0 0 0
410 1 17.28734435719012 28.24942761939463 8.848432414462026 0 0 0
411 1 16.382192392323056 26.970759709391665 6.619514793891355 0 0 0
412 1 19.097782363234753 26.970749928681524 6.619544578560615 0 0 0
413 1 18.19262166551223 25.692085500389144 4.390634283576227 0 0 0
414 1 20.908219931973303 25.692098800299163 4.3906652137268 0 0 0
415 1 20.0030449654934 24.41342314463876 2.1640719297979074 0 0 0
416 1 22.718638035237237 24.413471487495475 2.164091861806152 0 0 0
417 1 21.813432436196678 23.13475308394944 0.005184104614954359 0 0 0
418 1 24.52900998008127 23.134833448806077 0.005191032071813836 0 0 0
419 1 19.097741497419094 30.80683363049254 8.8485739170314 0 0 0
420 1 18.19260877721576 29.52818442972611 6.619586762789339 0 0 0
421 1 20.90820080507646 29.528179236914696 6.619738163635313 0 0 0
422 1 20.0030655803961 28.249540146654844 4.390733999154571 0 0 0
423 1 22.718646476651813 28.24957823316447 4.390878395877982 0 0 0
424 1 21.81350095338515 26.97094285487237 2.164172659660832 0 0 0
425 1 24.52904532876625 26.971033638488375 2.1642813274514054 0 0 0
426 1 23.62388520311259 25.692370893714827 0.00526439809168124 0 0 0
427 1 26.339402401573295 25.692510684875664 0.005321807234733856 0 0 0
540 1 0.08884684845685563 26.970763736957316 24.45074243617536 0 0 0
429 1 23.623923437195938 29.528497571758034 2.164539486263591 0 0 0
430 1 26.33940889632752 29.528619580693682 2.1647626619375657 0 0 0
431 1 25.43430872223349 28.250059519977818 0.005583124704345197 0 0 0
432 1 28.14976430688272 28.250184201028695 0.005733857347659259 0 0 0
433 1 0.9940839060691805 1.396459796326001 11.077360871245231 0 0 0
1345 1 8.235485156727712 0.1177527622351796 22.221881202647424 0 0 0
5314 1 21.81322223281097 30.806735727017553 22.222038366954486 0 0 0
436 1 0.9940805587227854 5.232624767444076 13.306274376750796 0 0 0
660 1 0.08888810839270307 7.790057508951428 17.76407058215217 0 0 0
438 1 2.804440856011539 3.9539004799943815 11.077372294863222 0 0 0