LAMMPS data file via write_data, version 2 Aug 2023, timestep = 187, units = metal

14401 atoms
3 atom types

0.08859400164307521 65.2628122650573 xlo xhi
0.11746060558127006 61.49643610276647 ylo yhi
-22.326067804133558 75.68526757971317 zlo zhi

Masses

1 183.84
2 1.008
3 4.0026

Atoms # atomic

1 1 0.9937914775237614 28.24949104179107 0.005204113814325491 0 0 0
1532 1 21.81332006608353 0.11747428168152396 13.306124732347401 0 0 0
3 1 0.9937914775237909 20.57711910464288 0.005204113814339093 0 0 0
4 1 0.9937914775237928 24.413305073216986 2.1640984448810126 0 0 0
1521 1 19.097740164067396 0.11746128293442364 17.76391221273811 0 0 0
6 1 2.8041864292853105 23.134576417025617 0.005204113814325491 0 0 0
7 1 0.9937914775237808 28.24949104179106 4.3906529782256705 0 0 0
7409 1 32.67570218242911 26.970749210783737 15.535015974061238 0 0 0
9 1 2.804186429285311 26.970762385599688 2.1640984448810126 0 0 0
10 1 1.8989889534045423 25.692033729408326 0.005204113814325491 0 0 0
11 1 4.614581381046808 25.692033729408333 0.0052041138143173295 0 0 0
12 1 2.8041864292850693 30.80694835417366 4.390652978225573 0 0 0
13 1 1.8989889534045328 29.528219697982433 2.1640984448809935 0 0 0
14 1 4.614581381046855 29.528219697982422 2.16409844488092 0 0 0
15 1 3.7093839051660544 28.24949104179105 0.0052041138143173295 0 0 0
16 1 6.42497633280827 28.24949104179104 0.005204113814260181 0 0 0
17 1 8.23537128456892 30.80694835417333 0.005204113812668309 0 0 0
18 1 0.9937914775237908 12.904747167494744 0.005204113814341813 0 0 0
19 1 0.9937914775237878 16.740933136068822 2.16409844488101 0 0 0
2171 1 23.623728377094093 25.692033729420288 26.67959988649961 0 0 0
21 1 2.804186429285294 15.462204479877464 0.005204113814328212 0 0 0
22 1 0.9937914775237888 20.57711910464289 4.3906529782256705 0 0 0
1640 1 21.813325715972553 0.11746880598499843 17.763915719674475 0 0 0
24 1 2.8041864292853087 19.29839044845154 2.1640984448810126 0 0 0
25 1 1.8989889534045394 18.019661792260184 0.005204113814325491 0 0 0
26 1 4.6145813810468095 18.01966179226018 0.005204113814325491 0 0 0
27 1 0.9937914775237933 24.41330507321698 6.619511590288798 0 0 0
5323 1 29.960091410482683 30.80686933423935 17.76394257945781 0 0 0
29 1 2.804186429285305 23.134576417025613 4.3906529782256705 0 0 0
30 1 1.8989889534045423 21.855847760834266 2.16409844488101 0 0 0
31 1 4.614581381046808 21.855847760834266 2.1640984448810126 0 0 0
32 1 3.7093839051660544 20.577119104642883 0.005204113814325491 0 0 0
33 1 6.42497633280831 20.57711910464289 0.0052041138143254905 0 0 0
34 1 0.9937914775237388 28.24949104179102 8.848374750802861 0 0 0
8343 1 32.67570177694895 0.1174792452562934 22.221754508946578 0 0 0
36 1 2.804186429285173 26.970762385599627 6.619511590288772 0 0 0
37 1 1.898988953404532 25.692033729408337 4.3906529782256705 0 0 0
38 1 4.614581381046668 25.692033729408255 4.390652978225632 0 0 0
39 1 3.7093839051660535 24.41330507321698 2.1640984448810126 0 0 0
40 1 6.424976332808316 24.413305073216957 2.1640984448809664 0 0 0
41 1 5.519778856927558 23.134576417025617 0.0052041138143309315 0 0 0
42 1 8.235371284569803 23.134576417025603 0.005204113814292836 0 0 0
43 1 2.8041864292836243 30.806948354173002 8.848374750802419 0 0 0
44 1 1.8989889534043765 29.528219697982337 6.61951159028876 0 0 0
45 1 4.614581381043495 29.5282196979808 6.6195115902879715 0 0 0
46 1 3.7093839051658533 28.249491041790957 4.390652978225599 0 0 0
47 1 6.424976332804658 28.24949104178908 4.390652978224321 0 0 0
48 1 5.519778856927588 26.97076238559968 2.1640984448809526 0 0 0
49 1 8.235371284569895 26.970762385599254 2.1640984448798504 0 0 0
50 1 7.330173808689034 25.692033729408315 0.005204113814268348 0 0 0
51 1 10.045766236330978 25.692033729407996 0.005204113813332283 0 0 0
52 1 7.330173808689438 29.528219697982088 2.1640984448794427 0 0 0
53 1 10.045766236329097 29.528219697971625 2.164098444853234 0 0 0
54 1 9.1405687604499 28.24949104179062 0.005204113812973089 0 0 0
55 1 11.856161188084757 28.249491041783344 0.0052041137903939775 0 0 0
56 1 13.666556139694112 30.806948354026527 0.005204113304271573 0 0 0
57 1 0.9937914775237882 5.232375230346609 0.0052041138143526944 0 0 0
58 1 0.9937914775237918 9.068561198920674 2.1640984448810126 0 0 0
5261 1 29.96004349101752 30.806749837893584 13.306152933328747 0 0 0
60 1 2.804186429285301 7.789832542729321 0.005204113814341813 0 0 0
61 1 0.9937914775237926 12.904747167494751 4.3906529782256705 0 0 0
5157 1 27.244452607073605 30.80681605035407 8.84835141952071 0 0 0
63 1 2.804186429285305 11.626018511303391 2.1640984448810126 0 0 0
64 1 1.898988953404539 10.347289855112027 0.0052041138143418125 0 0 0
65 1 4.614581381046808 10.347289855112033 0.005204113814341813 0 0 0
66 1 0.9937914775237922 16.74093313606883 6.619511590288798 0 0 0
1380 1 21.813319436201844 0.11747475742650694 8.848373274850886 0 0 0
68 1 2.8041864292853096 15.46220447987747 4.3906529782256705 0 0 0
69 1 1.8989889534045423 14.183475823686113 2.1640984448810126 0 0 0
70 1 4.614581381046803 14.18347582368611 2.1640984448810126 0 0 0
71 1 3.7093839051660535 12.904747167494747 0.005204113814328212 0 0 0
72 1 6.424976332808306 12.904747167494754 0.005204113814339093 0 0 0
73 1 0.9937914775237866 20.577119104642904 8.848374750802893 0 0 0
1186 1 24.528899176919566 0.11750426300170232 4.390631534426356 0 0 0
75 1 2.8041864292853016 19.29839044845155 6.619511590288798 0 0 0
76 1 1.8989889534045423 18.01966179226019 4.3906529782256705 0 0 0
77 1 4.614581381046805 18.01966179226019 4.3906529782256705 0 0 0
78 1 3.709383905166047 16.740933136068822 2.1640984448810126 0 0 0
79 1 6.42497633280831 16.740933136068826 2.1640984448810126 0 0 0
80 1 5.5197788569275605 15.462204479877464 0.0052041138143418125 0 0 0
81 1 8.235371284569817 15.462204479877462 0.005204113814328212 0 0 0
82 1 0.9937914775237572 24.413305073216957 11.077244044615975 0 0 0
5141 1 21.813315551306736 30.806930264870772 13.306126452770677 0 0 0
84 1 2.8041864292852656 23.1345764170256 8.848374750802893 0 0 0
85 1 1.8989889534045479 21.855847760834262 6.619511590288798 0 0 0
86 1 4.6145813810467615 21.855847760834234 6.619511590288782 0 0 0
87 1 3.7093839051660464 20.577119104642897 4.3906529782256705 0 0 0
88 1 6.424976332808258 20.577119104642854 4.390652978225654 0 0 0
89 1 5.519778856927563 19.29839044845155 2.1640984448810126 0 0 0
90 1 8.235371284569808 19.298390448451524 2.1640984448809935 0 0 0
91 1 7.330173808689061 18.019661792260187 0.0052041138143254905 0 0 0
92 1 10.045766236331312 18.019661792260187 0.005204113814317326 0 0 0
93 1 0.9937914775236609 28.24949104179098 13.306122498424678 0 0 0
1166 1 19.09774011474954 0.1174614451305776 8.848374680369522 0 0 0
95 1 2.804186429284266 26.970762385599162 11.07724404461597 0 0 0
96 1 1.8989889534044901 25.692033729408315 8.848374750802883 0 0 0
97 1 4.614581381045674 25.69203372940768 8.848374750802638 0 0 0
98 1 3.709383905165966 24.413305073216925 6.619511590288777 0 0 0
99 1 6.42497633280679 24.413305073216005 6.61951159028838 0 0 0
100 1 5.5197788569274735 23.134576417025553 4.390652978225643 0 0 0
101 1 8.23537128456833 23.13457641702458 4.390652978225088 0 0 0
102 1 7.330173808689054 21.85584776083425 2.164098444880999 0 0 0
103 1 10.0457662363311 21.855847760833893 2.1640984448805582 0 0 0
104 1 9.140568760450561 20.57711910464288 0.005204113814306442 0 0 0
105 1 11.856161188092795 20.57711910464276 0.005204113813941808 0 0 0
957 1 21.813330779859438 0.11746396722975605 0.0052009510958993714 0 0 0
107 1 1.8989889534030828 29.528219697981726 11.07724404461597 0 0 0
108 1 4.614581381016943 29.528219697967724 11.077244044615302 0 0 0
109 1 3.7093839051645685 28.249491041790296 8.848374750802524 0 0 0
110 1 6.424976332779402 28.24949104177521 8.84837475079529 0 0 0
111 1 5.519778856925203 26.970762385598377 6.6195115902881625 0 0 0
112 1 8.235371284531457 26.970762385576627 6.6195115902772566 0 0 0
113 1 7.330173808686582 25.69203372940682 4.390652978224729 0 0 0
114 1 10.04576623629399 25.69203372938353 4.390652978210302 0 0 0
115 1 9.140568760450448 24.413305073216538 2.1640984448802425 0 0 0
116 1 11.856161188086812 24.41330507320789 2.1640984448687677 0 0 0
117 1 10.950963712211978 23.13457641702543 0.005204113813691465 0 0 0
118 1 13.666556139852764 23.1345764170218 0.005204113803588234 0 0 0
119 1 7.330173808633696 29.528219697953492 6.619511590272794 0 0 0
120 1 10.045766235504447 29.528219697518498 6.619511590016752 0 0 0
121 1 9.140568760392433 28.249491041757505 4.390652978202428 0 0 0
122 1 11.856161187290045 28.249491041291463 4.390652977874701 0 0 0
123 1 10.950963712207635 26.97076238558923 2.1640984448615517 0 0 0
124 1 13.666556139694823 26.970762385398615 2.164098444593456 0 0 0
125 1 12.761358663970588 25.692033729403587 0.005204113798116129 0 0 0
126 1 15.476951091550832 25.69203372931053 0.0052041135533567396 0 0 0
127 1 10.95096371104735 30.806948353549362 4.3906529777307215 0 0 0
128 1 13.666556125313686 30.8069483457653 4.390652971449025 0 0 0
129 1 12.761358663821905 29.528219697758743 2.164098444454961 0 0 0
130 1 15.476951087701407 29.52821969402935 2.1640984391253544 0 0 0
131 1 14.571753615651533 28.2494910416893 0.0052041134486395775 0 0 0
132 1 17.287346041117008 28.249491039529577 0.005204108355232668 0 0 0
133 1 16.382148565006005 30.806948352097347 0.0052041065755403975 0 0 0
134 1 0.993791477523752 1.3961892617725213 2.164098444880942 0 0 0
934 1 19.09774005884457 0.11746132244487373 4.390652708710951 0 0 0
4820 1 29.960110039688235 30.806940236240095 0.0051971153362952 0 0 0
137 1 0.9937914775239396 5.232375230346697 4.390652978225632 0 0 0
7394 1 32.67570305782385 23.134575649064058 13.306122809125064 0 0 0
139 1 2.804186429285308 3.953646574155247 2.1640984448810263 0 0 0
140 1 1.8989889534045141 2.6749179179638976 0.0052041138143309315 0 0 0
141 1 4.614581381047298 2.6749179179635543 0.005204113814341805 0 0 0
142 1 0.9937914775238508 9.068561198920715 6.619511590288793 0 0 0
7296 1 32.675703104396064 23.13457580377791 8.848374418997029 0 0 0
144 1 2.8041864292853096 7.789832542729324 4.3906529782256705 0 0 0
145 1 1.89898895340454 6.511103886537965 2.1640984448810343 0 0 0
146 1 4.614581381046807 6.5111038865379625 2.1640984448810237 0 0 0
147 1 3.7093839051660282 5.232375230346624 0.005204113814341813 0 0 0
148 1 6.424976332808691 5.232375230346342 0.0052041138143499675 0 0 0
149 1 0.9937914775238085 12.904747167494762 8.848374750802899 0 0 0
11008 1 32.67570278751075 30.80693940329101 0.005196209798268912 0 0 0
151 1 2.8041864292853145 11.626018511303391 6.61951159028881 0 0 0
152 1 1.8989889534045457 10.347289855112031 4.3906529782256705 0 0 0
153 1 4.614581381046808 10.347289855112031 4.3906529782256705 0 0 0
154 1 3.709383905166047 9.068561198920673 2.1640984448810126 0 0 0
155 1 6.42497633280832 9.068561198920671 2.1640984448810126 0 0 0
156 1 5.519778856927542 7.78983254272934 0.005204113814330933 0 0 0
157 1 8.235371284570267 7.789832542728982 0.0052041138143309245 0 0 0
158 1 0.993791477523789 16.740933136068826 11.077244044615998 0 0 0
1632 1 16.3821485407012 0.11746062493065347 22.22174265451434 0 0 0
160 1 2.8041864292853047 15.46220447987747 8.848374750802899 0 0 0
161 1 1.8989889534045519 14.183475823686114 6.619511590288798 0 0 0
162 1 4.6145813810468095 14.183475823686102 6.61951159028881 0 0 0
163 1 3.7093839051660504 12.904747167494747 4.3906529782256705 0 0 0
164 1 6.424976332808315 12.904747167494754 4.3906529782256705 0 0 0
165 1 5.51977885692756 11.626018511303393 2.1640984448810126 0 0 0
166 1 8.23537128456984 11.62601851130337 2.164098444880999 0 0 0
167 1 7.330173808689061 10.347289855112049 0.005204113814349974 0 0 0
168 1 10.045766236331954 10.347289855111063 0.005204113814385333 0 0 0
169 1 0.9937914775237865 20.5771191046429 13.306122498424667 0 0 0
1641 1 24.52890138214613 0.1174982733022133 17.76393137029358 0 0 0
171 1 2.8041864292852887 19.29839044845155 11.077244044615975 0 0 0
172 1 1.8989889534045366 18.019661792260198 8.848374750802899 0 0 0
173 1 4.614581381046792 18.01966179226018 8.848374750802883 0 0 0
174 1 3.709383905166051 16.740933136068822 6.619511590288798 0 0 0
175 1 6.424976332808301 16.74093313606881 6.619511590288798 0 0 0
176 1 5.519778856927563 15.462204479877464 4.390652978225681 0 0 0
177 1 8.235371284569807 15.462204479877462 4.390652978225654 0 0 0
178 1 7.3301738086890635 14.18347582368611 2.1640984448810126 0 0 0
179 1 10.045766236331332 14.183475823686086 2.1640984448810343 0 0 0
180 1 9.140568760450643 12.904747167494653 0.005204113814341813 0 0 0
181 1 11.856161188092033 12.90474716749582 0.005204113814178564 0 0 0
182 1 0.9937914775237874 24.413305073216975 15.535011731974762 0 0 0
1633 1 19.097740575713797 0.11746098330934274 22.221742894198886 0 0 0
184 1 2.804186429285241 23.134576417025574 13.306122498424667 0 0 0
185 1 1.8989889534045161 21.85584776083426 11.077244044615975 0 0 0
186 1 4.614581381046466 21.855847760834042 11.077244044615975 0 0 0
187 1 3.7093839051660296 20.57711910464288 8.848374750802883 0 0 0
188 1 6.424976332807908 20.5771191046426 8.848374750802812 0 0 0
189 1 5.519778856927533 19.298390448451524 6.619511590288793 0 0 0
190 1 8.235371284569393 19.298390448451187 6.619511590288668 0 0 0
191 1 7.330173808689038 18.019661792260166 4.3906529782256705 0 0 0
192 1 10.04576623633099 18.019661792259868 4.390652978225518 0 0 0
193 1 9.140568760450565 16.74093313606882 2.164098444881002 0 0 0
194 1 11.856161188092688 16.740933136068712 2.1640984448809175 0 0 0
195 1 10.950963712212035 15.462204479877515 0.005204113814317326 0 0 0
196 1 13.666556139854574 15.462204479876997 0.0052041138143418125 0 0 0
197 1 0.9937914775237736 28.249491041791046 17.763911952902205 0 0 0
7381 1 32.67570312913614 19.298390325752123 11.077244043770056 0 0 0
199 1 2.8041864292850733 26.970762385599585 15.535011731974823 0 0 0
200 1 1.8989889534044426 25.69203372940827 13.306122498424667 0 0 0
201 1 4.614581381044797 25.692033729407115 13.306122498424873 0 0 0
202 1 3.7093839051654163 24.41330507321659 11.077244044615975 0 0 0
203 1 6.424976332797421 24.413305073209877 11.077244044615743 0 0 0
204 1 5.519778856926821 23.13457641702513 8.848374750802746 0 0 0
205 1 8.235371284557667 23.13457641701689 8.848374750800373 0 0 0
206 1 7.330173808688193 21.85584776083363 6.619511590288549 0 0 0
207 1 10.045766236318782 21.85584776082424 6.619511590284957 0 0 0
208 1 9.1405687604498 20.57711910464227 4.390652978225354 0 0 0
209 1 11.856161188083059 20.577119104634015 4.390652978221377 0 0 0
210 1 10.950963712211871 19.29839044845128 2.164098444880773 0 0 0
211 1 13.666556139850782 19.298390448447595 2.164098444878049 0 0 0
212 1 12.761358663973581 18.019661792260145 0.005204113814164942 0 0 0
213 1 15.476951091613662 18.01966179225733 0.005204113810929694 0 0 0
214 1 2.8041864292847207 30.806948354173517 17.763911952902376 0 0 0
215 1 1.8989889534042503 29.52821969798228 15.535011731974844 0 0 0
216 1 4.614581381040711 29.52821969797939 15.535011731976123 0 0 0
217 1 3.709383905163005 28.24949104178945 13.306122498424983 0 0 0
218 1 6.42497633275711 28.249491041761708 13.306122498431078 0 0 0
219 1 5.519778856908208 26.970762385588717 11.077244044615545 0 0 0
220 1 8.23537128427806 26.97076238541918 11.07724404460983 0 0 0
221 1 7.330173808668613 25.69203372939552 8.848374750798174 0 0 0
222 1 10.04576623602439 25.692033729198336 8.848374750732761 0 0 0
223 1 9.140568760426907 24.413305073200615 6.619511590281577 0 0 0
224 1 11.856161187780977 24.413305072979185 6.619511590186347 0 0 0
225 1 10.950963712191204 23.134576417009516 4.3906529782168 0 0 0
226 1 13.666556139610242 23.134576416813264 4.390652978112917 0 0 0
227 1 12.76135866396787 21.855847760827185 2.1640984448741962 0 0 0
228 1 15.476951091523425 21.855847760738776 2.1640984448021654 0 0 0
229 1 14.571753615734128 20.577119104642332 0.005204113809726824 0 0 0
230 1 17.287346043311295 20.577119104549173 0.005204113714742492 0 0 0
231 1 8.23537128348409 30.80694835359145 13.30612249858682 0 0 0
232 1 7.3301738081991585 29.52821969772138 11.077244044605349 0 0 0
233 1 10.045766229977144 29.528219694277066 11.077244044486434 0 0 0
234 1 9.140568759966932 28.24949104150489 8.848374750678795 0 0 0
235 1 11.856161181573965 28.249491037565253 8.848374749211002 0 0 0
236 1 10.950963711664109 26.970762385242253 6.6195115901076145 0 0 0
237 1 13.66655613334618 26.970762380882466 6.6195115879979 0 0 0
238 1 12.761358663490233 25.69203372905524 4.390652978008249 0 0 0
239 1 15.476951086513138 25.69203372516876 4.3906529757371935 0 0 0
240 1 14.5717536155901 24.413305073050996 2.164098444709208 0 0 0
241 1 17.28734604131333 24.413305071206672 2.164098443112048 0 0 0
242 1 16.382148567453168 23.134576417007725 0.005204113699520434 0 0 0
243 1 19.09774099351946 23.134576414678218 0.005204111442098516 0 0 0
244 1 10.95096370251187 30.806948348791146 8.848374748148066 0 0 0
245 1 13.666556026944724 30.806948285242644 8.84837472249123 0 0 0
246 1 12.761358653281514 29.528219691438803 6.619511586470473 0 0 0
247 1 15.47695098083562 29.528219621861485 6.619511548835581 0 0 0
248 1 14.571753606320815 28.249491035303986 4.3906529737336175 0 0 0
249 1 17.287345956605883 28.249490973031897 4.390652933572969 0 0 0
250 1 16.382148564220085 26.97076238221317 2.1640984412164768 0 0 0
251 1 19.09774095676847 26.97076234941513 2.1640984121997184 0 0 0
252 1 18.19254351772088 25.692033728715955 0.005204111289218397 0 0 0
253 1 20.908135916554357 25.69203368491078 0.005204069672296521 0 0 0
254 1 19.097739848872237 30.806947487995664 4.390652357940838 0 0 0
255 1 18.192543456339585 29.528219639943277 2.1640983807750267 0 0 0
256 1 20.908135390058355 29.528219173242977 2.164097971499005 0 0 0
257 1 20.002938431205983 28.249491019815363 0.005204066088753573 0 0 0
258 1 22.718530478839607 28.249490426096624 0.005203495108273075 0 0 0
259 1 24.528921697203977 30.80694232934224 0.005197823433308059 0 0 0
260 1 0.993791477527276 1.3961892617740825 6.619511590288004 0 0 0
1652 1 27.2443940794452 0.1177258821203005 13.306172044074971 0 0 0
270 1 5.5197788569312864 0.11746060558176197 0.005204113814053353 0 0 0
263 1 0.9937914775250234 5.23237523034727 8.848374750802611 0 0 0
1705 1 21.8133313390193 0.11746313042872246 22.221744520550676 0 0 0
265 1 2.8041864292854353 3.953646574155325 6.619511590288777 0 0 0
266 1 1.8989889534047382 2.6749179179639815 4.39065297822561 0 0 0
267 1 4.614581381046878 2.674917917963852 4.390652978225654 0 0 0
268 1 3.7093839051664057 1.3961892617723812 2.164098444880882 0 0 0
269 1 6.424976332807673 1.3961892617734055 2.1640984448811733 0 0 0
5352 1 29.960109036525736 30.80693581708643 22.221749788746134 0 0 0
5322 1 27.244494135784613 30.806894164179244 17.76393473874641 0 0 0
272 1 0.9937914775242125 9.06856119892095 11.077244044615975 0 0 0
5315 1 24.52892124703323 30.806941478449755 22.221747395123828 0 0 0
274 1 2.8041864292853425 7.789832542729346 8.848374750802899 0 0 0
275 1 1.8989889534046365 6.511103886538013 6.619511590288788 0 0 0
276 1 4.61458138104681 6.511103886537973 6.619511590288798 0 0 0
277 1 3.709383905166058 5.23237523034662 4.3906529782256705 0 0 0
278 1 6.424976332808391 5.2323752303465625 4.390652978225654 0 0 0
279 1 5.519778856927858 3.9536465741550617 2.164098444880931 0 0 0
280 1 8.235371284569498 3.9536465741554436 2.1640984448807923 0 0 0
281 1 7.330173808692546 2.674917917962054 0.005204113813759516 0 0 0
282 1 10.045766236283862 2.6749179179977514 0.005204113809661127 0 0 0
283 1 0.9937914775238075 12.904747167494762 13.306122498424667 0 0 0
1706 1 24.528922239334268 0.11746729040329604 22.221747273169562 0 0 0
285 1 2.8041864292853123 11.626018511303394 11.077244044615998 0 0 0
286 1 1.8989889534045759 10.347289855112052 8.848374750802893 0 0 0
287 1 4.614581381046811 10.347289855112031 8.84837475080291 0 0 0
288 1 3.7093839051660558 9.068561198920683 6.61951159028881 0 0 0
289 1 6.4249763328083045 9.068561198920683 6.61951159028881 0 0 0
290 1 5.519778856927559 7.789832542729328 4.390652978225676 0 0 0
291 1 8.235371284569876 7.78983254272929 4.390652978225643 0 0 0
292 1 7.330173808689335 6.511103886537762 2.164098444880942 0 0 0
293 1 10.045766236330232 6.511103886538322 2.1640984448812683 0 0 0
294 1 9.140568760453133 5.232375230343957 0.005204113813781285 0 0 0
295 1 11.856161188035987 5.232375230389169 0.005204113811078444 0 0 0
296 1 0.9937914775237912 16.740933136068826 15.535011731974762 0 0 0
1742 1 27.244513854676143 0.11747306430763345 22.221750806204312 0 0 0
298 1 2.8041864292853047 15.462204479877464 13.306122498424662 0 0 0
299 1 1.898988953404538 14.183475823686111 11.077244044615998 0 0 0
300 1 4.614581381046806 14.183475823686114 11.077244044615998 0 0 0
301 1 3.7093839051660544 12.904747167494746 8.84837475080291 0 0 0
302 1 6.42497633280831 12.904747167494746 8.84837475080291 0 0 0
303 1 5.519778856927563 11.62601851130339 6.61951159028881 0 0 0
304 1 8.235371284569803 11.626018511303391 6.619511590288798 0 0 0
305 1 7.330173808689058 10.347289855112033 4.39065297822566 0 0 0
306 1 10.045766236331337 10.347289855112153 4.390652978225719 0 0 0
307 1 9.140568760450805 9.06856119892043 2.1640984448809064 0 0 0
308 1 11.856161188089512 9.068561198923446 2.164098444883787 0 0 0
309 1 10.950963712212204 7.789832542726191 0.005204113814039762 0 0 0
310 1 13.666556139778674 7.789832542852265 0.00520411380490063 0 0 0
311 1 0.993791477523792 20.577119104642897 17.763911952902205 0 0 0
7361 1 32.67570313329912 11.626018512622831 6.6195115899072645 0 0 0
313 1 2.804186429285303 19.29839044845155 15.535011731974762 0 0 0
314 1 1.8989889534045414 18.01966179226019 13.306122498424662 0 0 0
315 1 4.614581381046793 18.019661792260184 13.306122498424656 0 0 0
316 1 3.7093839051660464 16.740933136068826 11.077244044615998 0 0 0
317 1 6.424976332808252 16.740933136068776 11.077244044615975 0 0 0
318 1 5.519778856927559 15.462204479877464 8.848374750802893 0 0 0
319 1 8.235371284569753 15.46220447987741 8.848374750802888 0 0 0
320 1 7.3301738086890555 14.183475823686111 6.619511590288798 0 0 0
321 1 10.04576623633125 14.183475823686093 6.619511590288777 0 0 0
322 1 9.140568760450552 12.904747167494783 4.3906529782256705 0 0 0
323 1 11.856161188093195 12.904747167493975 4.390652978225855 0 0 0
324 1 10.950963712212058 11.626018511303306 2.1640984448813225 0 0 0
325 1 13.666556139850629 11.626018511309944 2.164098444877261 0 0 0
326 1 12.76135866396334 10.34728985512649 0.005204113812480945 0 0 0
327 1 15.476951091705097 10.347289854988828 0.005204113846057278 0 0 0
328 1 0.9937914775237835 24.413305073216975 19.992822773848175 0 0 0
271 1 8.235371284508142 0.11746060562371952 0.005204113810964236 0 0 0
330 1 2.804186429285302 23.13457641702561 17.763911952902205 0 0 0
331 1 1.8989889534045352 21.855847760834262 15.535011731974762 0 0 0
332 1 4.614581381046715 21.855847760834198 15.535011731974773 0 0 0
333 1 3.7093839051660162 20.57711910464287 13.306122498424667 0 0 0
334 1 6.42497633280774 20.577119104642446 13.306122498424722 0 0 0
335 1 5.519778856927407 19.298390448451435 11.077244044615975 0 0 0
336 1 8.235371284567638 19.29839044844968 11.07724404461596 0 0 0
337 1 7.330173808688882 18.019661792260035 8.848374750802849 0 0 0
338 1 10.04576623632898 18.019661792257928 8.848374750802448 0 0 0
339 1 9.140568760450396 16.740933136068655 6.619511590288739 0 0 0
340 1 11.85616118809106 16.74093313606678 6.6195115902882495 0 0 0
341 1 10.950963712212 15.462204479877293 4.390652978225632 0 0 0
342 1 13.666556139853073 15.462204479876846 4.390652978225056 0 0 0
343 1 12.761358663973207 14.18347582368655 2.164098444880754 0 0 0
344 1 15.476951091619492 14.183475823680004 2.164098444882991 0 0 0
345 1 14.571753615740931 12.904747167486764 0.005204113816377057 0 0 0
346 1 17.287346043351683 12.904747167532506 0.005204113799765855 0 0 0
347 1 0.993791477523792 28.249491041791057 22.221742644769588 0 0 0
1743 1 29.960107558251686 0.11747731435813709 22.22175343264118 0 0 0
349 1 2.8041864292852696 26.970762385599674 19.992822773848175 0 0 0
350 1 1.8989889534045254 25.692033729408326 17.76391195290219 0 0 0
351 1 4.614581381046498 25.69203372940814 17.763911952902287 0 0 0
352 1 3.7093839051658937 24.41330507321688 15.535011731974773 0 0 0
353 1 6.42497633280557 24.413305073215152 15.53501173197534 0 0 0
354 1 5.519778856926404 23.134576417024828 13.306122498424797 0 0 0
355 1 8.235371284552965 23.134576417012966 13.306122498426758 0 0 0
356 1 7.330173808683775 21.85584776083031 11.077244044615888 0 0 0
357 1 10.04576623626571 21.855847760779906 11.077244044614762 0 0 0
358 1 9.140568760444612 20.57711910463797 8.848374750801751 0 0 0
359 1 11.856161188024888 20.577119104579392 8.848374750789397 0 0 0
360 1 10.950963712206645 19.298390448446444 6.619511590287096 0 0 0
361 1 13.6665561398024 19.298390448394926 6.619511590271357 0 0 0
362 1 12.761358663970038 18.019661792256368 4.390652978224043 0 0 0
363 1 15.47695109158918 18.019661792220056 4.390652978211587 0 0 0
364 1 14.57175361573353 16.74093313606601 2.1640984448798504 0 0 0
365 1 17.287346043377347 16.740933136069945 2.1640984448801173 0 0 0
366 1 16.38214856749551 15.462204479879695 0.005204113813792143 0 0 0
367 1 19.09774099514108 15.462204479872305 0.005204113815383922 0 0 0
368 1 2.8041864292852523 30.806948354173745 22.22174264476963 0 0 0
369 1 1.898988953404494 29.528219697982397 19.992822773848197 0 0 0
370 1 4.614581381046069 29.52821969798205 19.992822773848417 0 0 0
371 1 3.7093839051656006 28.24949104179083 17.76391195290232 0 0 0
372 1 6.42497633280042 28.24949104178668 17.763911952904525 0 0 0
373 1 5.519778856923169 26.970762385597187 15.535011731975725 0 0 0
374 1 8.23537128450081 26.970762385556636 15.53501173199074 0 0 0
375 1 7.330173808657444 25.69203372938756 13.306122498428612 0 0 0
376 1 10.045766235919324 25.692033729112538 13.306122498484031 0 0 0
377 1 9.140568760300711 24.413305073109747 11.07724404461299 0 0 0
378 1 11.856161186479165 24.413305071928782 11.077244044587246 0 0 0
379 1 10.950963712051115 23.134576416897563 8.84837475076917 0 0 0
380 1 13.6665561382199 23.134576415549525 8.84837475045731 0 0 0
381 1 12.761358663827997 21.855847760702986 6.619511590241096 0 0 0
382 1 15.476951090368043 21.855847759515605 6.619511589844086 0 0 0
383 1 14.571753615639347 20.577119104542792 4.390652978179377 0 0 0
384 1 17.28734604270872 20.577119103648467 4.39065297784791 0 0 0
385 1 16.382148567446787 19.29839044837815 2.1640984448430918 0 0 0
386 1 19.09774099515775 19.298390448427515 2.164098444863575 0 0 0
387 1 18.192543519263193 18.019661792270494 0.005204113817805024 0 0 0
388 1 20.908135946896564 18.019661792265776 0.005204113812540911 0 0 0
389 1 8.23537128440168 30.806948354087254 17.76391195295589 0 0 0
390 1 7.3301738085859505 29.5282196979272 15.535011731998935 0 0 0
391 1 10.045766234869987 29.52821969712972 15.535011732338754 0 0 0
392 1 9.140568759730495 28.249491041342903 13.306122498530339 0 0 0
393 1 11.856161179836969 28.24949103616773 13.30612249978557 0 0 0
394 1 10.950963708745684 26.970762383233954 11.07724404454896 0 0 0
395 1 13.666556108397463 26.970762361484773 11.07724404409956 0 0 0
396 1 12.761358660343342 25.69203372664342 8.848374749990782 0 0 0
397 1 15.476951059844412 25.69203370172604 8.848374743796999 0 0 0
398 1 14.571753612485349 24.41330507040033 6.6195115891550005 0 0 0
399 1 17.28734601920144 24.413305048409168 6.619511581157903 0 0 0
400 1 16.38214856534218 23.134576414864355 4.390652977132304 0 0 0
401 1 19.097740981914136 23.134576397419195 4.3906529701859585 0 0 0
402 1 18.192543518096958 21.855847759114315 2.1640984439384594 0 0 0
403 1 20.908135947061087 21.8558477598033 2.1640984442315103 0 0 0
404 1 20.00293847114456 20.577119104875973 0.005204113885630621 0 0 0
405 1 22.718530898626366 20.57711910487195 0.005204113803434637 0 0 0
406 1 13.666556008064559 30.806948269816726 13.30612252279555 0 0 0
407 1 12.761358600768872 29.528219657085423 11.077244043483066 0 0 0
408 1 15.476950626528991 29.528219356733825 11.07724403815558 0 0 0
409 1 14.571753549305383 28.249490993511557 8.84837473540043 0 0 0
410 1 17.287345564975215 28.24949064020967 8.848374644046165 0 0 0
411 1 16.382148508688903 26.97076233664392 6.619511568558867 0 0 0
412 1 19.097740632435634 26.970762021893396 6.61951144545667 0 0 0
413 1 18.192543480080467 25.69203369148899 4.39065295733337 0 0 0
414 1 20.908135747808263 25.692033436287424 4.390652847456979 0 0 0
415 1 20.002938449872126 24.413305041771547 2.164098426417712 0 0 0
416 1 22.718530894704468 24.413305043082005 2.164098426787858 0 0 0
417 1 21.81333342493918 23.134576420374117 0.005204114557274702 0 0 0
418 1 24.528925850815735 23.134576422679086 0.005204113864849672 0 0 0
419 1 19.097735749971182 30.806944118310312 8.848373606481827 0 0 0
420 1 18.192542694128907 29.528219038516642 6.619511270371466 0 0 0
421 1 20.90813196963976 29.52821576629814 6.619509921372493 0 0 0
422 1 20.00293791944008 28.24949052077169 4.390652668188585 0 0 0
423 1 22.718528717108676 28.24948786856827 4.390651425488476 0 0 0
424 1 21.81333313380191 26.9707619549915 2.1640981705957527 0 0 0
425 1 24.5289256919156 26.970761807265596 2.1640980963895236 0 0 0
426 1 23.62372839571227 25.692033747601425 0.005204107146919916 0 0 0
427 1 26.339320817137008 25.69203379996213 0.005204106252665034 0 0 0
428 1 24.528909251396584 30.80692466319352 4.390640130632198 0 0 0
429 1 23.623725531269066 29.52821546767999 2.1640954720801227 0 0 0
430 1 26.33931838051387 29.52821271816886 2.1640940938476394 0 0 0
431 1 25.43412334476744 28.24949071670602 0.005203732646031118 0 0 0
432 1 28.149715854640625 28.24949111992245 0.0052037314111304704 0 0 0
433 1 0.9937914775585449 1.396189261788262 11.077244044615785 0 0 0
5158 1 29.960048858023903 30.806739051181257 8.848339538171444 0 0 0
5314 1 21.813332216422584 30.80694725836815 22.221743483281223 0 0 0
436 1 0.9937914775253253 5.232375230347452 13.306122498424934 0 0 0
7349 1 32.67570308042604 3.9536481574347113 2.164097710185661 0 0 0