ITEM: TIMESTEP
2559
ITEM: NUMBER OF ATOMS
1633
ITEM: BOX BOUNDS pp pp pp
6.4307010608481263e-02 3.2611396117294468e+01
6.4187603178495548e-02 2.0473777961135816e+01
-2.2402558598158667e+01 5.7975358448544846e+01
ITEM: ATOMS id x y z
1 0.825252 12.8201 -0.0233026
2 0.65563 16.6468 2.14123
3 32.3553 15.3713 -0.0232978
4 2.52034 15.3713 -0.0231541
5 32.1857 19.198 2.14122
6 2.35078 19.1981 2.14138
7 1.50329 17.9225 -0.0231161
8 4.21543 17.9225 -0.0230437
9 1.16432 5.16643 -0.0231968
10 0.994726 8.99327 2.14112
11 0.147248 7.71764 -0.0233288
12 2.8594 7.71766 -0.0232152
13 0.825092 12.82 4.37397
14 32.5247 11.5444 2.14105
15 2.68982 11.5445 2.14118
16 1.84233 10.2689 -0.0232799
17 4.55447 10.2689 -0.0232376
18 0.655435 16.6466 6.60934
19 32.3551 15.3711 4.37397
20 2.52019 15.3712 4.37413
21 1.67271 14.0957 2.1412
22 4.38492 14.0957 2.14126
23 3.5374 12.8201 -0.0232082
24 6.24954 12.8202 -0.0232371
25 32.1855 19.1978 6.60929
26 2.35066 19.1979 6.60946
27 1.50313 17.9224 4.37416
28 4.21535 17.9225 4.37423
29 3.36784 16.6469 2.14135
30 6.08004 16.6469 2.14132
31 5.23248 15.3714 -0.0231311
32 7.94463 15.3714 -0.0232371
33 5.06299 19.1981 2.14141
34 7.7752 19.1982 2.1413
35 6.92758 17.9226 -0.0231065
36 9.63975 17.9226 -0.023288
37 1.33374 1.33965 2.14134
38 0.48625 20.4736 -0.023137
39 3.1984 20.4737 -0.02302
40 1.16427 5.16646 4.37406
41 0.316691 3.89085 2.14122
42 3.0289 3.8909 2.14134
43 2.18137 2.61525 -0.0230784
44 4.89351 2.61529 -0.0230503
45 0.994711 8.99322 6.6092
46 0.147163 7.71764 4.37392
47 2.85939 7.71771 4.37406
48 2.01183 6.44208 2.14122
49 4.72403 6.44213 2.14126
50 3.87646 5.16647 -0.0231247
51 6.5886 5.1665 -0.0231848
52 0.824905 12.8197 8.84456
53 32.5246 11.5443 6.60914
54 2.68971 11.5444 6.6093
55 1.84224 10.2689 4.37399
56 4.55445 10.2689 4.37404
57 3.70693 8.9933 2.1412
58 6.41912 8.99334 2.14115
59 5.57154 7.7177 -0.0232249
60 8.28369 7.71773 -0.0233548
61 0.655172 16.6462 11.0799
62 32.3548 15.3708 8.84455
63 2.51994 15.371 8.84469
64 1.67253 14.0955 6.60933
65 4.38475 14.0956 6.60938
66 3.53731 12.8201 4.37407
67 6.24952 12.8201 4.37403
68 5.40202 11.5445 2.14119
69 8.11422 11.5446 2.14107
70 7.26661 10.2689 -0.023318
71 9.97879 10.269 -0.0234993
72 32.1854 19.1974 11.0797
73 2.3505 19.1977 11.0799
74 1.50293 17.9221 8.84466
75 4.21516 17.9224 8.84471
76 3.36766 16.6467 6.60945
77 6.07989 16.6469 6.6094
78 5.23241 15.3713 4.37415
79 7.94464 15.3714 4.37402
80 7.09712 14.0957 2.14119
81 9.80933 14.0958 2.14101
82 8.9617 12.8202 -0.0233826
83 11.6739 12.8202 -0.0236048
84 5.0629 19.1981 6.60948
85 7.77514 19.1983 6.60935
86 6.92759 17.9226 4.37416
87 9.63982 17.9227 4.37395
88 8.79225 16.647 2.14117
89 11.5045 16.647 2.14093
90 10.6568 15.3714 -0.0234431
91 13.3691 15.3714 -0.0236926
92 10.4874 19.1982 2.14108
93 13.1997 19.1982 2.1408
94 12.352 17.9226 -0.023539
95 15.0643 17.9226 -0.0237903
96 1.3337 1.33957 6.60939
97 0.486103 20.4736 4.37413
98 3.19834 20.4737 4.37425
99 1.16435 5.16645 8.84451
100 0.31671 3.89079 6.60925
101 3.02895 3.89095 6.60941
102 2.18132 2.61527 4.37419
103 4.89355 2.61538 4.37423
104 4.04595 1.33971 2.14142
105 6.75816 1.33977 2.14135
106 5.91054 20.4737 -0.0230374
107 8.6227 20.4738 -0.0231852
108 0.994693 8.99308 11.0798
109 0.147217 7.71758 8.84439
110 2.85943 7.71775 8.84461
111 2.01187 6.44211 6.6093
112 4.72409 6.44225 6.60938
113 3.8765 5.16656 4.37415
114 6.58872 5.16665 4.3741
115 5.74111 3.89095 2.14133
116 8.45331 3.891 2.14118
117 7.60565 2.61533 -0.0231569
118 10.3178 2.61535 -0.0233693
119 0.824598 12.8192 13.3155
120 32.5244 11.5439 11.0798
121 2.68953 11.5442 11.08
122 1.84218 10.2688 8.84457
123 4.55437 10.2689 8.84465
124 3.70692 8.99334 6.60932
125 6.41912 8.99346 6.60928
126 5.5716 7.71779 4.37406
127 8.28381 7.71786 4.37391
128 7.43623 6.44217 2.14116
129 10.1484 6.44219 2.14095
130 9.30077 5.16653 -0.0233596
131 12.013 5.16654 -0.0236002
132 0.65499 16.6455 15.5504
133 32.3545 15.3701 13.3152
134 2.51966 15.3706 13.3153
135 1.67225 14.0951 11.08
136 4.38446 14.0955 11.08
137 3.5371 12.8199 8.84467
138 6.24931 12.8201 8.84459
139 5.40191 11.5445 6.60931
140 8.11412 11.5446 6.60915
141 7.26666 10.269 4.37395
142 9.97889 10.269 4.37374
143 9.13133 8.99337 2.14099
144 11.8436 8.99339 2.14075
145 10.9959 7.71775 -0.0235681
146 13.7082 7.71775 -0.0238071
147 32.1852 19.1968 15.5499
148 2.35038 19.1974 15.5502
149 1.50272 17.9217 13.3151
150 4.21495 17.9223 13.3151
151 3.3674 16.6465 11.08
152 6.07963 16.6469 11.0799
153 5.23216 15.3712 8.84466
154 7.94439 15.3714 8.84447
155 7.09696 14.0958 6.60927
156 9.80919 14.0959 6.60904
157 8.96174 12.8202 4.37386
158 11.674 12.8202 4.37361
159 10.8264 11.5446 2.14085
160 13.5387 11.5446 2.1406
161 12.691 10.269 -0.0237317
162 15.4033 10.269 -0.0239525
163 5.06274 19.1981 11.0799
164 7.77497 19.1985 11.0797
165 6.9274 17.9227 8.84459
166 9.63964 17.9229 8.84434
167 8.79213 16.6471 6.60921
168 11.5044 16.6472 6.60892
169 10.6569 15.3714 4.37378
170 13.3691 15.3715 4.3735
171 12.5216 14.0958 2.14075
172 15.2338 14.0958 2.14051
173 14.3862 12.8202 -0.0238425
174 17.0985 12.8202 -0.0240309
175 10.4874 19.1984 6.6091
176 13.1996 19.1984 6.60878
177 12.3521 17.9227 4.37368
178 15.0643 17.9227 4.3734
179 14.2167 16.647 2.14066
180 16.929 16.647 2.14044
181 16.0814 15.3714 -0.0239167
182 18.7937 15.3713 -0.0240547
183 15.912 19.1982 2.14055
184 18.6243 19.1981 2.14039
185 17.7766 17.9226 -0.0239735
186 20.489 17.9225 -0.0240404
187 1.33367 1.33942 11.0798
188 0.486015 20.4733 8.84455
189 3.19826 20.4736 8.84469
190 1.16439 5.16633 13.315
191 0.316771 3.89069 11.0796
192 3.029 3.89101 11.0799
193 2.18135 2.61525 8.84462
194 4.89358 2.61553 8.8447
195 4.04594 1.33975 6.60948
196 6.75818 1.33994 6.60943
197 5.91057 0.0641896 4.37423
198 8.62281 0.0642911 4.37408
199 0.994448 8.99257 15.5509
200 0.147214 7.71733 13.315
201 2.85942 7.71773 13.3154
202 2.01194 6.44211 11.0799
203 4.72416 6.44246 11.08
204 3.87658 5.16668 8.84467
205 6.5888 5.16694 8.84467
206 5.74118 3.89112 6.60943
207 8.4534 3.89127 6.60929
208 7.60578 2.61549 4.37412
209 10.318 2.61555 4.3739
210 9.47038 1.33981 2.14116
211 12.1826 1.33983 2.1409
212 11.3349 20.4738 -0.0234239
213 14.0472 20.4738 -0.0236877
214 0.824425 12.8183 17.7865
215 32.5241 11.5431 15.551
216 2.68929 11.5438 15.5511
217 1.84201 10.2685 13.3155
218 4.55425 10.269 13.3156
219 3.70689 8.99337 11.08
220 6.4191 8.99371 11.08
221 5.57164 7.71797 8.84466
222 8.28383 7.71816 8.84452
223 7.4363 6.44239 6.60929
224 10.1485 6.44246 6.60905
225 9.30094 5.16671 4.37391
226 12.0132 5.16673 4.37364
227 11.1655 3.89101 2.14094
228 13.8778 3.89101 2.14067
229 13.0301 2.61536 -0.0236286
230 15.7424 2.61535 -0.0238648
231 0.655282 16.6447 20.0208
232 32.3545 15.3692 17.7859
233 2.51968 15.3702 17.7859
234 1.67201 14.0946 15.5508
235 4.3843 14.0954 15.5508
236 3.53684 12.8197 13.3155
237 6.24908 12.8202 13.3154
238 5.40173 11.5446 11.08
239 8.11392 11.5448 11.0798
240 7.26656 10.2691 8.84453
241 9.97876 10.2692 8.84424
242 9.13132 8.99355 6.60908
243 11.8435 8.99357 6.60879
244 10.996 7.71788 4.37367
245 13.7083 7.71788 4.3734
246 12.8607 6.4422 2.1407
247 15.573 6.44218 2.14046
248 14.7253 5.16654 -0.0238418
249 17.4376 5.16653 -0.0240213
250 32.1854 19.1958 20.02
251 2.35045 19.197 20.0203
252 1.5027 17.9212 17.7854
253 4.21492 17.9222 17.7854
254 3.36723 16.6463 15.5504
255 6.07946 16.647 15.5503
256 5.2319 15.3712 13.3152
257 7.94411 15.3716 13.3149
258 7.09668 14.0958 11.0798
259 9.80889 14.096 11.0795
260 8.96152 12.8203 8.84434
261 11.6738 12.8204 8.84399
262 10.8263 11.5447 6.60888
263 13.5386 11.5447 6.60858
264 12.6911 10.2691 4.37348
265 15.4034 10.269 4.37323
266 14.5558 8.99338 2.14051
267 17.2681 8.99336 2.14032
268 16.4205 7.71774 -0.0240086
269 19.1328 7.71772 -0.02412
270 5.06259 19.1982 15.5501
271 7.77479 19.1989 15.5499
272 6.92718 17.9228 13.3149
273 9.6394 17.9232 13.3146
274 8.79186 16.6472 11.0796
275 11.5041 16.6474 11.0792
276 10.6566 15.3716 8.84415
277 13.3689 15.3716 8.8438
278 12.5214 14.0959 6.60873
279 15.2337 14.0959 6.60845
280 14.3862 12.8202 4.37334
281 17.0985 12.8202 4.37313
282 16.251 11.5446 2.14039
283 18.9633 11.5445 2.14026
284 18.1157 10.2689 -0.0241026
285 20.828 10.2689 -0.0241426
286 10.4872 19.1987 11.0794
287 13.1995 19.1988 11.079
288 12.3519 17.9229 8.844
289 15.0642 17.9229 8.84365
290 14.2166 16.6471 6.60861
291 16.9289 16.647 6.60836
292 16.0814 15.3714 4.37325
293 18.7937 15.3713 4.3731
294 17.9461 14.0957 2.14033
295 20.6585 14.0957 2.14028
296 19.8109 12.8201 -0.0241197
297 22.5233 12.8201 -0.0240871
298 15.9119 19.1984 6.60849
299 18.6242 19.1982 6.60829
300 17.7766 17.9226 4.37319
301 20.4889 17.9225 4.37311
302 19.6413 16.6469 2.14033
303 22.3537 16.6469 2.14036
304 21.5061 15.3713 -0.0240714
305 24.2185 15.3713 -0.0239651
306 21.3366 19.1981 2.14036
307 24.0489 19.198 2.14047
308 23.2013 17.9225 -0.0239759
309 25.9137 17.9225 -0.0237979
310 1.3336 1.33911 15.55
311 0.48592 20.473 13.3148
312 3.19815 20.4735 13.315
313 1.16409 5.1658 17.7855
314 0.316739 3.89035 15.5499
315 3.02892 3.89095 15.5503
316 2.18134 2.61516 13.315
317 4.89356 2.61571 13.3151
318 4.0459 1.3398 11.0799
319 6.75814 1.34021 11.0799
320 5.91049 0.0643041 8.84467
321 8.62273 0.0645476 8.8445
322 0.993548 8.99135 20.0222
323 0.1467 7.71642 17.7861
324 2.859 7.71737 17.7864
325 2.01183 6.44189 15.5506
326 4.72407 6.44264 15.5508
327 3.87661 5.16681 13.3152
328 6.58884 5.16737 13.3153
329 5.74124 3.8914 11.08
330 8.45346 3.89175 11.0799
331 7.60582 2.61579 8.84462
332 10.318 2.61596 8.84439
333 9.47041 1.34008 6.60923
334 12.1827 1.34012 6.60894
335 11.335 0.0643396 4.37382
336 14.0473 0.064325 4.37352
337 0.824837 12.8174 22.2573
338 32.5238 11.5418 20.0223
339 2.68928 11.5434 20.0222
340 1.84162 10.2678 17.7867
341 4.55413 10.269 17.7867
342 3.70674 8.99331 15.5511
343 6.41908 8.99414 15.5511
344 5.57166 7.71827 13.3155
345 8.2839 7.71877 13.3154
346 7.43638 6.44281 11.08
347 10.1486 6.44304 11.0798
348 9.30101 5.16712 8.84449
349 12.0132 5.16716 8.84418
350 11.1656 3.89133 6.60903
351 13.8779 3.8913 6.6087
352 13.0303 2.61555 4.37361
353 15.7425 2.6155 4.37333
354 14.8949 1.33981 2.14063
355 17.6072 1.33977 2.14043
356 16.7595 20.4737 -0.0239049
357 19.4719 20.4737 -0.0240183
358 0.65678 16.6437 24.4911
359 32.3553 15.3681 22.2564
360 2.52056 15.3699 22.2565
361 1.67231 14.094 20.0216
362 4.38476 14.0955 20.0216
363 3.53685 12.8195 17.7865
364 6.24925 12.8206 17.7864
365 5.40163 11.5447 15.5511
366 8.11392 11.5454 15.5508
367 7.26649 10.2695 13.3154
368 9.97869 10.2698 13.3151
369 9.13129 8.99395 11.0798
370 11.8435 8.99399 11.0794
371 10.996 7.71822 8.84421
372 13.7083 7.71818 8.84384
373 12.8607 6.44245 6.60874
374 15.573 6.44239 6.60845
375 14.7254 5.1667 4.37336
376 17.4377 5.16664 4.37315
377 16.5901 3.89098 2.14044
378 19.3024 3.89094 2.14032
379 18.4547 2.61532 -0.024016
380 21.1671 2.61529 -0.0240434
381 32.1865 19.1942 24.49
382 2.35119 19.1964 24.4904
383 1.50331 17.9205 22.2555
384 4.2154 17.9223 22.2556
385 3.36754 16.6461 20.0208
386 6.07974 16.6475 20.0207
387 5.23196 15.3713 17.7858
388 7.94415 15.3722 17.7855
389 7.09654 14.0961 15.5505
390 9.8087 14.0965 15.55
391 8.96128 12.8206 13.315
392 11.6735 12.8206 13.3144
393 10.8261 11.5449 11.0794
394 13.5384 11.5449 11.079
395 12.691 10.2693 8.84389
396 15.4033 10.2692 8.84356
397 14.5558 8.99354 6.60849
398 17.2681 8.99347 6.60826
399 16.4206 7.71784 4.37317
400 19.1329 7.71777 4.37304
401 18.2853 6.44215 2.1403
402 20.9976 6.44211 2.14027
403 20.15 5.1665 -0.0240924
404 22.8624 5.16647 -0.024036
405 5.06256 19.1983 20.0203
406 7.77463 19.1996 20.02
407 6.92709 17.9232 17.7852
408 9.63919 17.9238 17.7847
409 8.79164 16.6476 15.5499
410 11.5038 16.6478 15.5492
411 10.6563 15.3718 13.3144
412 13.3686 15.3718 13.3139
413 12.5211 14.0961 11.079
414 15.2334 14.096 11.0787
415 14.386 12.8204 8.84365
416 17.0983 12.8202 8.8434
417 16.2509 11.5447 6.60832
418 18.9632 11.5446 6.60818
419 18.1157 10.269 4.37306
420 20.828 10.2689 4.37301
421 19.9804 8.99332 2.14024
422 22.6928 8.99329 2.14028
423 21.8452 7.71769 -0.0241119
424 24.5576 7.71766 -0.0239859
425 10.487 19.1993 15.5495
426 13.1992 19.1993 15.5489
427 12.3516 17.9233 13.3141
428 15.0639 17.9231 13.3136
429 14.2164 16.6473 11.0788
430 16.9287 16.6471 11.0785
431 16.0812 15.3715 8.8435
432 18.7935 15.3713 8.84333
433 17.946 14.0958 6.60825
434 20.6583 14.0957 6.60819
435 19.8108 12.8201 4.37303
436 22.5231 12.82 4.37307
437 21.6756 11.5445 2.14026
438 24.3879 11.5445 2.14037
439 23.5404 10.2689 -0.0240627
440 26.2528 10.2689 -0.0238842
441 15.9117 19.1986 11.0786
442 18.624 19.1983 11.0784
443 17.7764 17.9227 8.8434
444 20.4887 17.9224 8.84333
445 19.6412 16.6469 6.60823
446 22.3535 16.6468 6.60828
447 21.506 15.3713 4.37308
448 24.2183 15.3712 4.37321
449 23.3708 14.0957 2.14035
450 26.0831 14.0956 2.14053
451 25.2356 12.8201 -0.0239434
452 27.9479 12.8201 -0.0237266
453 21.3365 19.198 6.60827
454 24.0488 19.1979 6.60841
455 23.2012 17.9224 4.37319
456 25.9135 17.9223 4.3734
457 25.066 16.6468 2.14051
458 27.7782 16.6468 2.14075
459 26.9308 15.3713 -0.0237646
460 29.6431 15.3713 -0.0235213
461 26.7612 19.198 2.1407
462 29.4734 19.198 2.14097
463 28.626 17.9225 -0.0235524
464 31.3382 17.9225 -0.0233029
465 1.33344 1.33844 20.02
466 0.485861 20.4724 17.7849
467 3.19804 20.4733 17.7852
468 1.16268 5.16442 22.2564
469 0.316289 3.88941 20.0203
470 3.02835 3.89056 20.0207
471 2.18116 2.61484 17.7852
472 4.89333 2.61584 17.7854
473 4.0458 1.33982 15.5502
474 6.75802 1.34057 15.5501
475 5.91038 0.0644777 13.315
476 8.6226 0.0649446 13.3148
477 0.9924 8.98967 24.493
478 0.144908 7.71439 22.2576
479 2.85771 7.71646 22.2574
480 2.01094 6.44108 20.0215
481 4.72335 6.44257 20.0216
482 3.87628 5.16675 17.7858
483 6.58856 5.16783 17.786
484 5.74115 3.89172 15.5504
485 8.45339 3.89243 15.5504
486 7.6058 2.61625 13.3151
487 10.318 2.61662 13.3148
488 9.47037 1.34051 11.0796
489 12.1826 1.34063 11.0793
490 11.335 0.0646749 8.84421
491 14.0472 0.0646512 8.84385
492 0.826058 12.8162 26.7275
493 32.5239 11.5403 24.4929
494 2.68961 11.5429 24.4926
495 1.84117 10.2668 22.2577
496 4.554 10.2691 22.2576
497 3.70619 8.99297 20.0222
498 6.41885 8.99466 20.0222
499 5.5714 7.71853 17.7865
500 8.28382 7.71965 17.7865
501 7.43636 6.44344 15.5508
502 10.1486 6.44405 15.5507
503 9.30108 5.16783 13.3152
504 12.0133 5.16805 13.3149
505 11.1657 3.89194 11.0796
506 13.8779 3.89191 11.0792
507 13.0303 2.61597 8.84405
508 15.7425 2.61585 8.84368
509 14.8949 1.34006 6.60861
510 17.6072 1.33994 6.60836
511 16.7596 0.0642597 4.37327
512 19.4719 20.4738 4.37314
513 0.659623 16.6425 28.9619
514 32.3575 15.3665 26.7269
515 2.52264 15.3696 26.7268
516 1.67359 14.0933 24.4921
517 4.38624 14.096 24.4921
518 3.53751 12.8195 22.2573
519 6.25027 12.8216 22.2573
520 5.40193 11.5451 20.0221
521 8.11457 11.5467 20.0222
522 7.26662 10.2702 17.7867
523 9.97905 10.2711 17.7866
524 9.1314 8.99484 15.551
525 11.8437 8.99518 15.5507
526 10.9961 7.71905 13.3151
527 13.7083 7.71899 13.3146
528 12.8608 6.44305 11.0794
529 15.573 6.44288 11.0789
530 14.7255 5.16708 8.8438
531 17.4377 5.16691 8.84349
532 16.5901 3.8912 6.60842
533 19.3024 3.89106 6.60825
534 18.4548 2.61542 4.37315
535 21.1671 2.61532 4.37311
536 20.3195 1.33972 2.14035
537 23.0318 1.33967 2.14041
538 22.1842 20.4737 -0.0239994
539 24.8966 20.4737 -0.0238538
540 32.1908 19.1924 28.9613
541 2.35347 19.1959 28.9613
542 1.50546 17.9196 26.726
543 4.21704 17.9226 26.726
544 3.36895 16.6461 24.4912
545 6.08113 16.6485 24.4912
546 5.23295 15.3718 22.2564
547 7.94526 15.3736 22.2563
548 7.09716 14.097 20.0214
549 9.80939 14.098 20.0212
550 8.96154 12.8215 17.7861
551 11.6736 12.8218 17.7855
552 10.8261 11.5457 15.5504
553 13.5382 11.5454 15.5496
554 12.6909 10.2697 13.3145
555 15.4031 10.2695 13.314
556 14.5557 8.99388 11.0789
557 17.268 8.99369 11.0786
558 16.4205 7.71806 8.84352
559 19.1328 7.71791 8.84332
560 18.2853 6.44228 6.60824
561 20.9976 6.44216 6.60818
562 20.15 5.16656 4.37306
563 22.8623 5.16648 4.37312
564 22.0147 3.8909 2.14034
565 24.727 3.89085 2.14048
566 23.8795 2.61526 -0.0239396
567 26.5918 2.61523 -0.0237309
568 5.06288 19.1987 24.4904
569 7.77447 19.2008 24.4901
570 6.92739 17.924 22.2554
571 9.63919 17.9253 22.2548
572 8.79178 16.6486 20.0202
573 11.5036 16.6489 20.0193
574 10.6562 15.3726 17.7848
575 13.3682 15.3722 17.7837
576 12.5208 14.0964 15.5492
577 15.2331 14.0961 15.5487
578 14.3857 12.8205 13.3139
579 17.098 12.8203 13.3136
580 16.2507 11.5448 11.0786
581 18.963 11.5446 11.0784
582 18.1156 10.2691 8.84334
583 20.8279 10.2689 8.84327
584 19.9804 8.99337 6.60815
585 22.6927 8.99326 6.6082
586 21.8452 7.7177 4.37304
587 24.5575 7.71764 4.37318
588 23.7099 6.44207 2.14037
589 26.4222 6.44204 2.14057
590 25.5747 5.16644 -0.0238656
591 28.287 5.16642 -0.0236255
592 10.4866 19.2004 20.0193
593 13.1987 19.2004 20.0182
594 12.3513 17.9239 17.7838
595 15.0636 17.9236 17.7831
596 14.2161 16.6476 15.5486
597 16.9284 16.6472 15.5482
598 16.0809 15.3716 13.3135
599 18.7932 15.3712 13.3134
600 17.9457 14.0958 11.0784
601 20.6581 14.0955 11.0784
602 19.8106 12.8201 8.84328
603 22.523 12.8199 8.84335
604 21.6755 11.5444 6.60817
605 24.3878 11.5444 6.60831
606 23.5403 10.2688 4.37309
607 26.2526 10.2688 4.37329
608 25.4051 8.99325 2.14045
609 28.1173 8.99324 2.14068
610 27.2699 7.71763 -0.0237745
611 29.9821 7.71762 -0.0235339
612 15.9115 19.199 15.5483
613 18.6238 19.1984 15.5479
614 17.7762 17.9228 13.3133
615 20.4885 17.9223 13.3132
616 19.641 16.6468 11.0783
617 22.3533 16.6465 11.0785
618 21.5058 15.3711 8.84334
619 24.2181 15.3709 8.84354
620 23.3706 14.0955 6.60829
621 26.0829 14.0954 6.60852
622 25.2354 12.82 4.37323
623 27.9477 12.82 4.37348
624 27.1002 11.5444 2.14058
625 29.8125 11.5444 2.14083
626 28.965 10.2688 -0.0236541
627 31.6773 10.2689 -0.0234329
628 21.3363 19.1979 11.0783
629 24.0486 19.1976 11.0786
630 23.201 17.9222 8.84345
631 25.9133 17.922 8.84375
632 25.0658 16.6466 6.60848
633 27.7781 16.6465 6.60878
634 26.9306 15.3711 4.37344
635 29.6428 15.3711 4.37372
636 28.7953 14.0956 2.14078
637 31.5076 14.0956 2.14102
638 30.6602 12.8201 -0.0234926
639 26.761 19.1978 6.60869
640 29.4733 19.1977 6.60901
641 28.6257 17.9223 4.37368
642 31.338 17.9223 4.37396
643 30.4905 16.6468 2.14101
644 1.33324 1.33729 24.4902
645 0.486064 20.4713 22.2549
646 3.19799 20.473 22.2552
647 1.15943 5.16194 26.7274
648 0.314524 3.88735 24.4911
649 3.02664 3.88963 24.4912
650 2.18051 2.61408 22.2554
651 4.89251 2.61583 22.2556
652 4.04551 1.33972 20.0203
653 6.75762 1.34105 20.0202
654 5.91021 0.064731 17.7852
655 8.62238 0.0655839 17.7849
656 0.991667 8.98784 28.9626
657 0.142922 7.71183 26.7281
658 2.85612 7.71535 26.7276
659 2.00873 6.43946 24.4924
660 4.72159 6.44219 24.4922
661 3.875 5.16625 22.2565
662 6.58739 5.1682 22.2565
663 5.74055 3.89195 20.0208
664 8.4528 3.89327 20.0208
665 7.60554 2.61683 17.7854
666 10.3178 2.61757 17.7851
667 9.47023 1.34115 15.5499
668 12.1824 1.34142 15.5495
669 11.3348 0.0651975 13.3144
670 14.0471 0.0651779 13.314
671 0.827721 12.8148 31.1972
672 32.5249 11.5383 28.9627
673 2.69033 11.5423 28.9624
674 1.841 10.2657 26.7278
675 4.55386 10.2691 26.7276
676 3.70537 8.99247 24.4927
677 6.41823 8.99527 24.4927
678 5.57047 7.71864 22.2573
679 8.28314 7.72069 22.2573
680 7.4358 6.44409 20.0216
681 10.1482 6.44535 20.0216
682 9.30086 5.16878 17.7859
683 12.0131 5.16938 17.7856
684 11.1656 3.8929 15.5501
685 13.8778 3.893 15.5496
686 13.0302 2.61673 13.3144
687 15.7425 2.61653 13.3139
688 14.8948 1.34054 11.0789
689 17.6071 1.34026 11.0785
690 16.7595 0.0644915 8.84353
691 19.4718 0.0642482 8.84335
692 0.661205 16.6417 33.4305
693 32.3601 15.3649 31.1975
694 2.52468 15.3693 31.1971
695 1.67558 14.0925 28.9622
696 4.38803 14.0964 28.9621
697 3.5387 12.8194 26.7274
698 6.25159 12.8229 26.7276
699 5.40248 11.5457 24.4927
700 8.11544 11.5485 24.493
701 7.26682 10.2713 22.2577
702 9.97958 10.2732 22.258
703 9.13145 8.99618 20.0223
704 11.8439 8.9972 20.0223
705 10.9962 7.72047 17.7864
706 13.7084 7.72069 17.786
707 12.8609 6.4443 15.5503
708 15.5731 6.44404 15.5497
709 14.7255 5.16794 13.3144
710 17.4378 5.16756 13.3138
711 16.5901 3.89168 11.0787
712 19.3024 3.89135 11.0784
713 18.4548 2.61563 8.84341
714 21.1671 2.61538 8.84333
715 20.3195 1.33977 6.60826
716 23.0317 1.33961 6.60832
717 22.1841 20.4737 4.37316
718 24.8964 20.4736 4.37333
719 32.1916 19.1913 33.4319
720 2.35408 19.1956 33.4309
721 1.50784 17.9189 31.1973
722 4.21902 17.923 31.1971
723 3.37141 16.6462 28.9618
724 6.08384 16.65 28.9619
725 5.2352 15.3728 26.727
726 7.94825 15.3762 26.7274
727 7.09909 14.0987 24.4924
728 9.81219 14.1014 24.493
729 8.96307 12.8237 22.2576
730 11.6758 12.8253 22.258
731 10.8271 11.5479 20.0223
732 13.5394 11.5483 20.0222
733 12.6913 10.2715 17.7863
734 15.4034 10.2709 17.7856
735 14.5558 8.99495 15.5501
736 17.2681 8.99439 15.5494
737 16.4206 7.71868 13.3141
738 19.1329 7.71829 13.3137
739 18.2853 6.44262 11.0786
740 20.9976 6.44233 11.0784
741 20.15 5.1667 8.84332
742 22.8623 5.1665 8.84335
743 22.0147 3.89091 6.60824
744 24.727 3.89078 6.6084
745 23.8794 2.61523 4.37322
746 26.5917 2.61516 4.37346
747 25.7441 1.33963 2.1406
748 28.4564 1.33961 2.14087
749 27.6089 20.4736 -0.023619
750 30.3211 20.4736 -0.0233566
751 5.06393 19.1992 28.9612
752 7.77455 19.2025 28.9611
753 6.92872 17.9254 26.726
754 9.64031 17.9282 26.7257
755 8.79323 16.6507 24.4911
756 11.505 16.6524 24.4905
757 10.6573 15.3749 22.256
758 13.3689 15.3749 22.2547
759 12.5213 14.0982 20.0204
760 15.2329 14.0963 20.0183
761 14.3855 12.821 17.7843
762 17.0978 12.8202 17.7837
763 16.2504 11.545 15.549
764 18.9628 11.5445 15.5488
765 18.1154 10.2692 13.3137
766 20.8278 10.2689 13.3136
767 19.9803 8.99347 11.0784
768 22.6927 8.99325 11.0784
769 21.8452 7.71774 8.84329
770 24.5575 7.71759 8.84344
771 23.7099 6.44205 6.60828
772 26.4222 6.44196 6.60851
773 25.5746 5.16641 4.3733
774 28.2869 5.16638 4.37357
775 27.4393 3.89082 2.14072
776 30.1516 3.89082 2.14099
777 29.3041 2.61522 -0.0234721
778 32.0163 2.61522 -0.0232329
779 10.4859 19.2026 24.4893
780 13.1971 19.2034 24.4872
781 12.3508 17.9258 22.2534
782 15.0625 17.924 22.2505
783 14.2155 16.648 20.0175
784 16.9281 16.6473 20.0169
785 16.0806 15.3717 17.7831
786 18.793 15.3709 17.783
787 17.9455 14.0956 15.5485
788 20.6578 14.095 15.5486
789 19.8104 12.8199 13.3135
790 22.5227 12.8195 13.3137
791 21.6754 11.5443 11.0784
792 24.3877 11.5441 11.0786
793 23.5402 10.2688 8.84338
794 26.2525 10.2686 8.84362
795 25.405 8.99317 6.60838
796 28.1173 8.99313 6.60865
797 27.2697 7.7176 4.37341
798 29.982 7.71759 4.37368
799 29.1345 6.44203 2.14083
800 31.8467 6.44205 2.14107
801 30.9992 5.16641 -0.0233804
802 15.9111 19.1999 20.0171
803 18.6236 19.1989 20.0163
804 17.7759 17.9229 17.7825
805 20.4883 17.9219 17.7825
806 19.6407 16.6466 15.5481
807 22.3531 16.6458 15.5484
808 21.5055 15.3707 13.3135
809 24.2178 15.3703 13.3139
810 23.3704 14.0952 11.0786
811 26.0827 14.095 11.079
812 25.2353 12.8198 8.84358
813 27.9476 12.8197 8.84391
814 27.1001 11.5443 6.60856
815 29.8124 11.5443 6.60886
816 28.9649 10.2688 4.37355
817 31.6771 10.2688 4.37381
818 30.8296 8.99324 2.14093
819 21.3362 19.1977 15.5479
820 24.0485 19.197 15.5483
821 23.2008 17.9217 13.3135
822 25.9131 17.9213 13.314
823 25.0656 16.6462 11.0788
824 27.7778 16.646 11.0792
825 26.9304 15.3708 8.84387
826 29.6426 15.3707 8.84425
827 28.7952 14.0954 6.60882
828 31.5074 14.0954 6.60912
829 30.66 12.82 4.37375
830 26.7609 19.1973 11.079
831 29.4731 19.1973 11.0794
832 28.6256 17.9219 8.84412
833 31.3378 17.9219 8.84445
834 30.4903 16.6465 6.6091
835 1.33292 1.3357 28.9611
836 0.487311 20.4697 26.7252
837 3.19826 20.4725 26.7255
838 1.15734 5.15993 31.197
839 0.310334 3.88393 28.9624
840 3.02371 3.88821 28.9619
841 2.17888 2.61273 26.726
842 4.89057 2.61561 26.7261
843 4.04484 1.33947 24.4904
844 6.75653 1.34171 24.4904
845 5.90991 0.0651235 22.2552
846 8.62181 0.0667018 22.2549
847 0.991572 8.98637 33.4291
848 0.141847 7.7095 31.1971
849 2.85501 7.71435 31.197
850 2.00658 6.43776 28.9624
851 4.71956 6.44181 28.9622
852 3.87247 5.16535 26.727
853 6.58503 5.16857 26.7269
854 5.73882 3.89203 24.4912
855 8.45098 3.89437 24.4911
856 7.60459 2.61758 22.2555
857 10.3167 2.6191 22.2552
858 9.46976 1.34216 20.0199
859 12.1819 1.34276 20.0193
860 11.3345 0.0660439 17.7844
861 14.0468 0.0660525 17.7836
862 0.828842 12.8138 35.5935
863 32.526 11.5366 33.4294
864 2.69101 11.5417 33.4292
865 1.84122 10.2645 31.1971
866 4.55377 10.2691 31.197
867 3.70459 8.99195 28.9624
868 6.41728 8.99595 28.9624
869 5.569 7.71876 26.7274
870 8.28164 7.72202 26.7275
871 7.43422 6.44481 24.4921
872 10.1467 6.44706 24.4922
873 9.29976 5.16996 22.2564
874 12.0121 5.17109 22.2562
875 11.1651 3.89424 20.0205
876 13.8773 3.89459 20.0198
877 13.03 2.6179 17.7845
878 15.7422 2.6177 17.7838
879 14.8947 1.34133 15.5489
880 17.607 1.34085 15.5483
881 16.7593 0.0648824 13.3135
882 19.4716 0.064389 13.3132
883 32.3619 15.3639 35.5948
884 2.52575 15.3688 35.5941
885 1.6772 14.0919 33.4297
886 4.38914 14.0966 33.4294
887 3.5399 12.8193 31.197
888 6.25253 12.8239 31.197
889 5.40302 11.5463 28.9624
890 8.11594 11.5504 28.9627
891 7.26672 10.2725 26.7278
892 9.97961 10.2758 26.7283
893 9.13101 8.99786 24.4929
894 11.8436 8.99984 24.4934
895 10.9957 7.72227 22.2575
896 13.7079 7.72299 22.2575
897 12.8605 6.44605 20.0214
898 15.5727 6.44591 20.0208
899 14.7254 5.16944 17.785
900 17.4376 5.16884 17.7842
901 16.5901 3.89265 15.549
902 19.3024 3.89199 15.5484
903 18.4548 2.61609 13.3135
904 21.1671 2.61555 13.3132
905 20.3194 1.33988 11.0783
906 23.0317 1.33951 11.0784
907 22.1841 20.4736 8.84337
908 24.8963 20.4733 8.84359
909 1.50818 17.9183 35.5955
910 4.21882 17.9226 35.5951
911 3.37255 16.6462 33.43
912 6.08456 16.6507 33.4298
913 5.23699 15.3736 31.197
914 7.95018 15.3783 31.1971
915 7.10102 14.1005 28.9624
916 9.81471 14.1049 28.9629
917 8.96479 12.8263 26.7281
918 11.6783 12.8299 26.7291
919 10.8284 11.551 24.4937
920 13.5413 11.5529 24.4946
921 12.6921 10.2745 22.2584
922 15.4042 10.2745 22.2584
923 14.5561 8.99732 20.0221
924 17.268 8.9961 20.0213
925 16.4206 7.72013 17.7853
926 19.1328 7.71914 17.7845
927 18.2853 6.44343 15.549
928 20.9976 6.44275 15.5486
929 20.1501 5.16708 13.3135
930 22.8624 5.16661 13.3134
931 22.0147 3.891 11.0784
932 24.7271 3.8907 11.0785
933 23.8794 2.61515 8.84344
934 26.5917 2.61499 8.84372
935 25.744 1.33948 6.60855
936 28.4563 1.33941 6.60885
937 27.6087 20.4735 4.37359
938 30.321 20.4735 4.37389
939 5.06451 19.1995 33.4307
940 7.77551 19.2035 33.4312
941 6.93115 17.9272 31.1972
942 9.64472 17.9324 31.1978
943 8.79723 16.6543 28.9624
944 11.5122 16.6598 28.9635
945 10.662 15.38 26.7283
946 13.3767 15.3844 26.7298
947 12.5255 14.1038 24.4939
948 15.2387 14.1056 24.4949
949 14.3883 12.826 22.2583
950 17.1001 12.8233 22.2569
951 16.2514 11.547 20.0213
952 18.9633 11.5452 20.0206
953 18.1155 10.2699 17.785
954 20.8277 10.2689 17.7847
955 19.9803 8.9938 15.549
956 22.6927 8.99329 15.5489
957 21.8452 7.71789 13.3135
958 24.5575 7.71755 13.3137
959 23.71 6.44206 11.0785
960 26.4223 6.44186 11.0787
961 25.5746 5.16633 8.84355
962 28.2869 5.16625 8.84387
963 27.4393 3.8907 6.60867
964 30.1515 3.8907 6.60898
965 29.3039 2.61514 4.37374
966 32.0162 2.61518 4.37401
967 31.1686 1.33961 2.14114
968 10.4846 19.206 28.9605
969 13.1928 19.2098 28.958
970 12.3512 17.9306 26.7244
971 15.0604 17.9308 26.7194
972 14.2159 16.6522 24.488
973 16.9254 16.6437 24.4786
974 16.0798 15.3709 22.2504
975 18.793 15.3695 22.2508
976 17.9453 14.0951 20.0178
977 20.658 14.0942 20.0188
978 19.8102 12.8195 17.7839
979 22.5226 12.8186 17.7845
980 21.6751 11.544 15.549
981 24.3874 11.5434 15.5495
982 23.5402 10.2686 13.3137
983 26.2525 10.2683 13.3141
984 25.405 8.99305 11.0787
985 28.1173 8.99294 11.079
986 27.2698 7.71749 8.84372
987 29.9821 7.71748 8.84407
988 29.1345 6.44194 6.6088
989 31.8467 6.44199 6.60909
990 30.9991 5.16639 4.37385
991 15.9087 19.2008 24.4824
992 18.6231 19.2001 24.482
993 17.7757 17.9234 22.2499
994 20.4886 17.9216 22.2504
995 19.6407 16.6462 20.0171
996 22.3532 16.6447 20.0178
997 21.5054 15.3699 17.7834
998 24.2177 15.369 17.7842
999 23.3701 14.0944 15.5491
1000 26.0824 14.0938 15.5497
1001 25.235 12.8191 13.3141
1002 27.9472 12.8189 13.3147
1003 27.1 11.544 11.079
1004 29.8122 11.5439 11.0795
1005 28.9648 10.2686 8.84396
1006 31.6771 10.2686 8.84431
1007 30.8296 8.99315 6.60895
1008 21.3361 19.1973 20.0163
1009 24.0486 19.1959 20.0171
1010 23.2007 17.9208 17.783
1011 25.9131 17.9201 17.7838
1012 25.0654 16.6452 15.549
1013 27.7776 16.6449 15.5497
1014 26.9301 15.3699 13.3144
1015 29.6423 15.3699 13.3149
1016 28.7949 14.0948 11.0794
1017 31.5071 14.0949 11.0798
1018 30.6598 12.8196 8.84428
1019 26.7608 19.1965 15.5489
1020 29.473 19.1965 15.5495
1021 28.6254 17.9212 13.3145
1022 31.3376 17.9213 13.3149
1023 30.49 16.646 11.0796
1024 1.33193 1.33466 33.4312
1025 0.491013 20.4686 31.1975
1026 3.19914 20.4722 31.1972
1027 1.15715 5.15975 35.5935
1028 0.309922 3.88256 33.4297
1029 3.02291 3.88755 33.4298
1030 2.17634 2.61105 31.1972
1031 4.88845 2.61525 31.1971
1032 4.04356 1.33904 28.9612
1033 6.75401 1.34233 28.9613
1034 5.90932 0.0656487 26.7255
1035 8.62025 0.0683631 26.7252
1036 0.141395 7.70857 35.5927
1037 2.85446 7.71408 35.593
1038 2.00569 6.43664 33.4292
1039 4.71834 6.4416 33.4294
1040 3.87052 5.16459 31.197
1041 6.58282 5.16893 31.1971
1042 5.73613 3.892 28.9618
1043 8.4479 3.89572 28.9619
1044 7.60215 2.61851 26.726
1045 10.3136 2.62133 26.7258
1046 9.46825 1.34385 24.49
1047 12.1801 1.34553 24.489
1048 11.3337 0.0678418 22.254
1049 14.0459 0.0678069 22.2525
1050 1.84137 10.2638 35.5929
1051 4.55373 10.2691 35.593
1052 3.70418 8.99154 33.4292
1053 6.41648 8.99654 33.4293
1054 5.56763 7.71889 31.1971
1055 8.2798 7.72337 31.1973
1056 7.432 6.44569 28.9622
1057 10.144 6.44942 28.9625
1058 9.29723 5.1716 26.7269
1059 12.0092 5.17401 26.727
1060 11.1632 3.89628 24.4909
1061 13.8754 3.89684 24.4904
1062 13.0289 2.6198 22.2544
1063 15.7412 2.61951 22.253
1064 14.8942 1.34268 20.0182