ITEM: TIMESTEP
925
ITEM: NUMBER OF ATOMS
1373
ITEM: BOX BOUNDS pp pp pp
-1.2606386953221747e-03 3.1127460507783454e+01
-1.1113134535930885e-03 2.2010658313453394e+01
-1.1950733354194707e-03 3.1127394942423503e+01
ITEM: ATOMS id x y z
1 31.1232 20.4328 2.23487
2 2.23481 20.4328 31.1231
3 31.1264 20.4323 6.68004
4 2.22325 20.4372 4.44825
5 4.4482 20.4372 2.22331
6 6.68 20.4323 31.1263
7 31.1268 20.4368 11.1183
8 2.22249 20.4367 8.89587
9 4.44603 20.438 6.66964
10 6.6696 20.438 4.44608
11 8.89585 20.4367 2.22255
12 11.1183 20.4368 31.1267
13 31.1269 20.4363 15.5636
14 2.22172 20.4364 13.3401
15 4.44568 20.437 11.1167
16 6.66902 20.4376 8.89254
17 8.89251 20.4376 6.66906
18 11.1167 20.437 4.44572
19 13.3401 20.4364 2.22178
20 15.5636 20.4363 31.1268
21 -0.00117815 20.4377 20.0098
22 2.22205 20.4369 17.7865
23 4.44537 20.4363 15.5629
24 6.66885 20.4366 13.3393
25 8.89226 20.4371 11.1156
26 11.1156 20.4371 8.89229
27 13.3392 20.4366 6.66888
28 15.5629 20.4363 4.44541
29 17.7866 20.4369 2.22211
30 20.0098 20.4377 -0.00111263
31 -0.00116558 20.4378 24.454
32 2.22299 20.438 22.2317
33 4.44606 20.4375 20.0091
34 6.66912 20.4368 17.7858
35 8.89242 20.4367 15.5623
36 11.1157 20.4371 13.339
37 13.339 20.4371 11.1158
38 15.5623 20.4367 8.89244
39 17.7858 20.4368 6.66916
40 20.0091 20.4375 4.4461
41 22.2318 20.438 2.22304
42 24.454 20.4378 -0.00109998
43 31.1264 20.4218 28.8842
44 2.22493 20.4336 26.6722
45 4.44758 20.4375 24.4538
46 6.67026 20.4377 22.232
47 8.89294 20.4371 20.0089
48 11.116 20.437 17.7857
49 13.3393 20.4374 15.5625
50 15.5625 20.4374 13.3393
51 17.7857 20.437 11.1161
52 20.0089 20.4371 8.89297
53 22.232 20.4377 6.6703
54 24.4538 20.4375 4.44763
55 26.6722 20.4336 2.22499
56 28.8843 20.4218 31.1264
57 4.45168 20.435 28.8995
58 6.67231 20.4371 26.6775
59 8.89428 20.4375 24.4553
60 11.1167 20.4369 22.2323
61 13.3397 20.4368 20.0091
62 15.5629 20.4372 17.786
63 17.786 20.4372 15.5629
64 20.0091 20.4368 13.3397
65 22.2323 20.4369 11.1167
66 24.4554 20.4375 8.89431
67 26.6775 20.4371 6.67235
68 28.8995 20.435 4.45172
69 8.89682 20.4365 28.9019
70 11.1181 20.4368 26.679
71 13.3404 20.4363 24.4558
72 15.5634 20.4363 22.2327
73 17.7866 20.4367 20.0097
74 20.0097 20.4367 17.7866
75 22.2327 20.4363 15.5634
76 24.4559 20.4363 13.3404
77 26.6791 20.4368 11.1181
78 28.902 20.4365 8.89685
79 13.341 20.4363 28.9031
80 15.5639 20.4362 26.6795
81 17.7871 20.4367 24.4564
82 20.0103 20.4373 22.2334
83 22.2335 20.4373 20.0103
84 24.4565 20.4367 17.7871
85 26.6796 20.4362 15.5639
86 28.9031 20.4363 13.341
87 17.787 20.4369 28.9035
88 20.0102 20.4378 26.6804
89 22.2336 20.4382 24.4569
90 24.457 20.4382 22.2336
91 26.6804 20.4378 20.0102
92 28.9036 20.4369 17.787
93 22.2327 20.4382 28.9037
94 24.4562 20.4382 26.6799
95 26.6799 20.4382 24.4561
96 28.9037 20.4382 22.2326
97 26.6769 20.4368 28.9022
98 28.9023 20.4368 26.6768
99 31.1268 17.2917 2.22448
100 31.1266 18.8522 31.1265
101 2.22443 17.2917 31.1267
102 31.1268 17.2909 6.67218
103 31.1263 18.8606 4.45159
104 2.22214 17.2931 4.44611
105 2.22194 18.8663 2.22199
106 4.44606 17.2931 2.2222
107 4.45155 18.8606 31.1263
108 6.67214 17.2909 31.1268
109 31.127 17.2916 11.1181
110 31.1268 18.8627 8.89714
111 2.22214 17.2923 8.89351
112 2.22239 18.8647 6.67109
113 4.44569 17.2927 6.66943
114 4.44608 18.8652 4.44613
115 6.66939 17.2927 4.44574
116 6.67105 18.8647 2.22245
117 8.89348 17.2923 2.22219
118 8.89711 18.8627 31.1268
119 11.1181 17.2916 31.1269
120 31.1268 17.2919 15.5633
121 31.1268 18.8641 13.3405
122 2.22183 17.2919 13.3399
123 2.22212 18.8642 11.1176
124 4.44543 17.2925 11.1159
125 4.44573 18.8652 8.8929
126 6.66885 17.2929 8.89231
127 6.66922 18.8653 6.66926
128 8.89229 17.2929 6.66888
129 8.89287 18.8652 4.44578
130 11.1159 17.2925 4.44548
131 11.1176 18.8642 2.22217
132 13.3399 17.2919 2.22189
133 13.3405 18.8641 31.1268
134 15.5633 17.2919 31.1268
135 31.1274 17.293 20.0093
136 31.1272 18.8647 17.7867
137 2.22197 17.2924 17.7862
138 2.22178 18.8641 15.5631
139 4.44535 17.292 15.5627
140 4.44537 18.8642 13.3396
141 6.66884 17.2923 13.339
142 6.66884 18.8648 11.1157
143 8.89217 17.2927 11.1155
144 8.89224 18.8651 8.89227
145 11.1155 17.2927 8.8922
146 11.1157 18.8648 6.66888
147 13.339 17.2923 6.66887
148 13.3396 18.8642 4.44542
149 15.5627 17.292 4.44539
150 15.5631 18.8641 2.22183
151 17.7862 17.2924 2.22202
152 17.7867 18.8647 31.1271
153 20.0093 17.293 31.1274
154 31.1274 17.2918 24.4535
155 -0.00117563 18.8651 22.2318
156 2.22267 17.2924 22.2315
157 2.22239 18.8652 20.0093
158 4.44586 17.2928 20.009
159 4.44556 18.8646 17.7861
160 6.66902 17.2924 17.7858
161 6.66889 18.8643 15.5625
162 8.89239 17.2924 15.5623
163 8.89228 18.8646 13.339
164 11.1157 17.2928 13.339
165 11.1156 18.8649 11.1156
166 13.339 17.2928 11.1158
167 13.339 18.8646 8.8923
168 15.5623 17.2924 8.89242
169 15.5625 18.8643 6.66892
170 17.7858 17.2924 6.66905
171 17.7861 18.8646 4.44561
172 20.009 17.2928 4.4459
173 20.0093 18.8652 2.22244
174 22.2315 17.2924 2.22272
175 22.2318 18.8651 -0.00110999
176 24.4535 17.2918 31.1273
177 31.1272 17.2896 28.9007
178 -0.00108778 18.8608 26.6729
179 2.22303 17.2915 26.6776
180 2.22328 18.864 24.4528
181 4.44683 17.2925 24.455
182 4.44666 18.8652 22.2318
183 6.66972 17.2929 22.2323
184 6.66943 18.865 20.009
185 8.89266 17.2927 20.0091
186 8.89253 18.8646 17.7857
187 11.1159 17.2926 17.7857
188 11.1159 18.8649 15.5624
189 13.3393 17.293 15.5625
190 13.3391 18.8652 13.3391
191 15.5625 17.293 13.3393
192 15.5624 18.8649 11.1159
193 17.7857 17.2926 11.116
194 17.7857 18.8646 8.89256
195 20.0091 17.2927 8.89268
196 20.0091 18.865 6.66946
197 22.2323 17.2929 6.66976
198 22.2318 18.8652 4.4467
199 24.455 17.2925 4.44687
200 24.4528 18.864 2.22333
201 26.6776 17.2915 2.22309
202 26.6729 18.8608 -0.0010226
203 28.9008 17.2896 31.1271
204 2.22484 18.8609 28.9007
205 4.44793 17.2917 28.9023
206 4.44795 18.8641 26.6775
207 6.67073 17.2922 26.6787
208 6.67068 18.865 24.455
209 8.89354 17.2928 24.4559
210 8.89326 18.8651 22.2323
211 11.1163 17.2925 22.2325
212 11.1161 18.8647 20.009
213 13.3395 17.2925 20.0092
214 13.3394 18.8649 17.7858
215 15.5628 17.2928 17.786
216 15.5627 18.8653 15.5627
217 17.786 17.2928 15.5628
218 17.7858 18.8649 13.3394
219 20.0092 17.2925 13.3395
220 20.009 18.8647 11.1162
221 22.2325 17.2925 11.1163
222 22.2324 18.8651 8.89328
223 24.4559 17.2928 8.89357
224 24.455 18.865 6.67072
225 26.6787 17.2922 6.67077
226 26.6775 18.8642 4.448
227 28.9024 17.2917 4.44798
228 28.9008 18.8609 2.22489
229 6.67289 18.8637 28.9018
230 8.89455 17.292 28.9029
231 8.89466 18.8648 26.6789
232 11.1171 17.2923 26.6795
233 11.117 18.8646 24.4558
234 13.34 17.292 24.4559
235 13.3398 18.8643 22.2325
236 15.5632 17.2921 22.2327
237 15.5631 18.8645 20.0094
238 17.7865 17.2924 20.0096
239 17.7863 18.8648 17.7863
240 20.0096 17.2924 17.7865
241 20.0094 18.8645 15.5631
242 22.2327 17.2921 15.5632
243 22.2325 18.8643 13.3398
244 24.456 17.292 13.34
245 24.4559 18.8646 11.117
246 26.6796 17.2923 11.1172
247 26.679 18.8648 8.89469
248 28.903 17.292 8.89458
249 28.9018 18.8637 6.67293
250 11.1183 18.8642 28.9029
251 13.3405 17.2918 28.903
252 13.3406 18.864 26.6794
253 15.5636 17.2918 26.6795
254 15.5636 18.864 24.456
255 17.7869 17.2924 24.4564
256 17.7869 18.8645 22.233
257 20.0102 17.2929 22.2334
258 20.01 18.8648 20.01
259 22.2334 17.2929 20.0102
260 22.233 18.8645 17.7869
261 24.4564 17.2924 17.7869
262 24.4561 18.864 15.5636
263 26.6796 17.2918 15.5636
264 26.6794 18.864 13.3406
265 28.9031 17.2918 13.3406
266 28.903 18.8642 11.1183
267 15.5637 18.864 28.9031
268 17.7867 17.2924 28.9034
269 17.787 18.8646 26.6799
270 20.0099 17.2931 26.6803
271 20.0103 18.8654 24.4569
272 22.2334 17.2935 24.4569
273 22.2337 18.8657 22.2337
274 24.4569 17.2935 22.2334
275 24.4569 18.8654 20.0103
276 26.6803 17.2931 20.0099
277 26.68 18.8646 17.787
278 28.9035 17.2924 17.7867
279 28.9032 18.864 15.5637
280 20.0099 18.8655 28.9039
281 22.2322 17.2929 28.9036
282 22.233 18.8657 26.6802
283 24.4562 17.293 26.6797
284 24.4566 18.8657 24.4565
285 26.6797 17.293 24.4562
286 26.6802 18.8657 22.233
287 28.9037 17.2929 22.2322
288 28.9039 18.8655 20.0098
289 24.4547 18.865 28.9033
290 26.6782 17.2924 28.9033
291 26.6791 18.8653 26.6791
292 28.9034 17.2924 26.6782
293 28.9033 18.865 24.4547
294 28.9012 18.8615 28.9011
295 31.1268 14.1494 2.22216
296 31.127 15.7196 31.127
297 2.2221 14.1494 31.1268
298 31.1268 14.1479 6.67032
299 31.1267 15.72 4.44675
300 2.22177 14.1489 4.44582
301 2.22213 15.7214 2.22218
302 4.44578 14.1489 2.22182
303 4.44671 15.72 31.1267
304 6.67028 14.1479 31.1267
305 31.1269 14.1479 11.1168
306 31.127 15.7196 8.89413
307 2.22189 14.1482 8.89304
308 2.22205 15.7203 6.66967
309 4.44541 14.1483 6.66904
310 4.44571 15.7206 4.44576
311 6.669 14.1483 4.44546
312 6.66963 15.7203 2.22211
313 8.89301 14.1482 2.22195
314 8.8941 15.7196 31.1269
315 11.1168 14.1479 31.1268
316 31.1268 14.1477 15.5629
317 31.1268 15.7197 13.3402
318 2.22179 14.1478 13.3396
319 2.22192 15.7201 11.1164
320 4.44537 14.1482 11.1158
321 4.44545 15.7205 8.89259
322 6.66873 14.1484 8.89211
323 6.66879 15.7207 6.66883
324 8.89208 14.1484 6.66877
325 8.89256 15.7205 4.4455
326 11.1157 14.1482 4.44542
327 11.1164 15.7201 2.22197
328 13.3395 14.1478 2.22185
329 13.3402 15.7197 31.1268
330 15.5629 14.1477 31.1267
331 31.1272 14.1484 20.0088
332 31.127 15.7202 17.7862
333 2.22184 14.148 17.7857
334 2.22176 15.7198 15.5628
335 4.44539 14.1478 15.5624
336 4.44538 15.72 13.3392
337 6.66889 14.1481 13.3389
338 6.6688 15.7204 11.1155
339 8.89225 14.1483 11.1155
340 8.89207 15.7206 8.89209
341 11.1155 14.1483 8.89227
342 11.1155 15.7204 6.66884
343 13.3389 14.1481 6.66893
344 13.3392 15.72 4.44542
345 15.5624 14.1478 4.44544
346 15.5628 15.7198 2.22182
347 17.7857 14.148 2.2219
348 17.7862 15.7202 31.1269
349 20.0088 14.1484 31.1271
350 31.1272 14.1481 24.4547
351 31.1274 15.7204 22.2317
352 2.22237 14.1486 22.2319
353 2.22222 15.7205 20.0088
354 4.44565 14.1484 20.0088
355 4.44548 15.7202 17.7857
356 6.66898 14.1481 17.7855
357 6.66892 15.7201 15.5623
358 8.89244 14.1482 15.5622
359 8.89233 15.7204 13.3389
360 11.1158 14.1485 13.339
361 11.1156 15.7206 11.1156
362 13.339 14.1485 11.1158
363 13.3389 15.7204 8.89235
364 15.5622 14.1482 8.89247
365 15.5623 15.7201 6.66895
366 17.7856 14.1481 6.66901
367 17.7857 15.7202 4.44552
368 20.0088 14.1484 4.44569
369 20.0088 15.7205 2.22227
370 22.2319 14.1486 2.22242
371 22.2318 15.7204 31.1274
372 24.4547 14.1481 31.1272
373 31.1269 14.149 28.9027
374 31.1272 15.7199 26.678
375 2.22234 14.1486 26.6789
376 2.2227 15.7202 24.455
377 4.44623 14.1484 24.4553
378 4.4461 15.7207 22.2321
379 6.66941 14.1486 22.2322
380 6.66917 15.7205 20.009
381 8.89257 14.1484 20.0089
382 8.89246 15.7204 17.7856
383 11.116 14.1484 17.7857
384 11.1159 15.7206 15.5624
385 13.3393 14.1487 15.5625
386 13.3392 15.7209 13.3392
387 15.5625 14.1487 13.3393
388 15.5624 15.7206 11.1159
389 17.7857 14.1484 11.116
390 17.7857 15.7204 8.89249
391 20.0089 14.1484 8.8926
392 20.009 15.7205 6.66921
393 22.2323 14.1486 6.66944
394 22.2322 15.7207 4.44615
395 24.4554 14.1484 4.44628
396 24.455 15.7202 2.22275
397 26.6789 14.1486 2.2224
398 26.6781 15.7199 31.1271
399 28.9028 14.149 31.1269
400 2.22279 15.72 28.9026
401 4.44648 14.1485 28.9026
402 4.44662 15.7203 26.6787
403 6.66992 14.1483 26.679
404 6.66989 15.7206 24.4557
405 8.89304 14.1485 24.4558
406 8.89282 15.7206 22.2325
407 11.1161 14.1483 22.2324
408 11.116 15.7204 20.0091
409 13.3395 14.1483 20.0091
410 13.3394 15.7207 17.7858
411 15.5628 14.1486 17.786
412 15.5627 15.721 15.5627
413 17.786 14.1486 15.5628
414 17.7859 15.7207 13.3394
415 20.0092 14.1483 13.3395
416 20.0091 15.7204 11.116
417 22.2324 14.1483 11.1162
418 22.2325 15.7206 8.89285
419 24.4559 14.1485 8.89307
420 24.4557 15.7206 6.66993
421 26.6791 14.1483 6.66996
422 26.6788 15.7203 4.44667
423 28.9027 14.1485 4.44653
424 28.9027 15.72 2.22285
425 6.67065 15.7197 28.9026
426 8.89366 14.1482 28.903
427 8.89366 15.7205 26.6795
428 11.1166 14.1482 26.6795
429 11.1164 15.7203 24.456
430 13.3397 14.1479 24.4559
431 13.3396 15.7201 22.2325
432 15.5631 14.148 22.2327
433 15.563 15.7203 20.0093
434 17.7863 14.1482 20.0095
435 17.7862 15.7206 17.7862
436 20.0095 14.1482 17.7863
437 20.0094 15.7203 15.563
438 22.2327 14.148 15.5631
439 22.2326 15.7201 13.3396
440 24.456 14.1479 13.3397
441 24.4561 15.7203 11.1164
442 26.6795 14.1482 11.1166
443 26.6795 15.7205 8.89369
444 28.9031 14.1482 8.89369
445 28.9026 15.7197 6.67069
446 11.1171 15.7201 28.9032
447 13.34 14.1477 28.9031
448 13.3401 15.7198 26.6795
449 15.5632 14.1477 26.6795
450 15.5633 15.7198 24.456
451 17.7865 14.1481 24.4562
452 17.7867 15.7202 22.2329
453 20.0098 14.1485 22.233
454 20.0099 15.7205 20.0098
455 22.233 14.1485 20.0098
456 22.2329 15.7202 17.7866
457 24.4562 14.1481 17.7865
458 24.4561 15.7198 15.5633
459 26.6795 14.1477 15.5632
460 26.6795 15.7198 13.3401
461 28.9031 14.1477 13.34
462 28.9032 15.7201 11.1171
463 15.5633 15.7197 28.9031
464 17.7862 14.148 28.9032
465 17.7866 15.7202 26.6798
466 20.0096 14.1486 26.6799
467 20.01 15.7209 24.4567
468 22.2329 14.149 24.4565
469 22.2334 15.7212 22.2334
470 24.4565 14.149 22.2329
471 24.4567 15.7209 20.01
472 26.68 14.1486 20.0096
473 26.6798 15.7202 17.7866
474 28.9032 14.148 17.7862
475 28.9032 15.7197 15.5633
476 20.0094 15.7208 28.9037
477 22.2324 14.1489 28.9036
478 22.2329 15.7212 26.6802
479 24.4559 14.1487 26.6796
480 24.4564 15.721 24.4564
481 26.6797 14.1487 24.4559
482 26.6802 15.7212 22.2329
483 28.9036 14.1489 22.2324
484 28.9037 15.7208 20.0093
485 24.4555 15.7205 28.903
486 26.679 14.1488 28.903
487 26.6794 15.721 26.6794
488 28.903 14.1488 26.679
489 28.9031 15.7205 24.4555
490 28.9027 15.72 28.9026
491 31.1269 11.0068 2.2229
492 31.127 12.5785 31.1269
493 2.22284 11.0068 31.1269
494 31.1267 11.005 6.6706
495 31.1267 12.577 4.4466
496 2.22221 11.0051 4.44626
497 2.22216 12.5774 2.22222
498 4.44621 11.0051 2.22227
499 4.44656 12.577 31.1267
500 6.67057 11.005 31.1266
501 31.1266 11.0041 11.1169
502 31.1267 12.5763 8.89363
503 2.22172 11.0041 8.89315
504 2.22196 12.5764 6.6695
505 4.44549 11.0042 6.66947
506 4.44575 12.5764 4.4458
507 6.66944 11.0042 4.44554
508 6.66946 12.5764 2.22202
509 8.89312 11.0041 2.22178
510 8.8936 12.5763 31.1266
511 11.1169 11.0041 31.1265
512 31.1268 11.0034 15.5628
513 31.1268 12.5756 13.3398
514 2.22172 11.0036 13.3395
515 2.22173 12.576 11.1162
516 4.44532 11.0038 11.116
517 4.44529 12.5762 8.89246
518 6.6689 11.0038 8.89247
519 6.66885 12.5762 6.66888
520 8.89244 11.0038 6.66894
521 8.89244 12.5762 4.44534
522 11.116 11.0038 4.44536
523 11.1162 12.576 2.22179
524 13.3395 11.0036 2.22177
525 13.3398 12.5756 31.1267
526 15.5628 11.0034 31.1267
527 31.1268 11.0042 20.0085
528 31.1268 12.5758 17.7857
529 2.22174 11.0037 17.7854
530 2.22176 12.5756 15.5625
531 4.44542 11.0036 15.5622
532 4.44538 12.5758 13.3391
533 6.66897 11.0038 13.339
534 6.66885 12.576 11.1157
535 8.8924 11.0039 11.1158
536 8.89223 12.5761 8.89226
537 11.1158 11.0039 8.89243
538 11.1156 12.576 6.66889
539 13.339 11.0038 6.669
540 13.3391 12.5758 4.44543
541 15.5622 11.0036 4.44547
542 15.5625 12.5756 2.22182
543 17.7854 11.0037 2.2218
544 17.7857 12.5758 31.1267
545 20.0085 11.0042 31.1267
546 31.1272 11.0053 24.4544
547 31.1272 12.5767 22.2316
548 2.22211 11.0047 22.2314
549 2.22192 12.5764 20.0086
550 4.44558 11.0041 20.0082
551 4.44541 12.5759 17.7854
552 6.66906 11.0038 17.7852
553 6.66897 12.5759 15.5622
554 8.89252 11.0039 15.5622
555 8.89241 12.5761 13.339
556 11.1159 11.0041 13.3391
557 11.1157 12.5763 11.1157
558 13.3391 11.0041 11.1159
559 13.3389 12.5761 8.89244
560 15.5622 11.0039 8.89255
561 15.5622 12.5759 6.669
562 17.7852 11.0038 6.66909
563 17.7854 12.5759 4.44546
564 20.0082 11.0041 4.44563
565 20.0086 12.5764 2.22198
566 22.2314 11.0047 2.22216
567 22.2316 12.5767 31.1271
568 24.4544 11.0053 31.1271
569 31.1271 11.0073 28.9024
570 31.1271 12.5772 26.6784
571 2.22279 11.0058 26.6783
572 2.22255 12.5769 24.4551
573 4.44616 11.0047 24.4548
574 4.44587 12.5765 22.2318
575 6.66951 11.0043 22.2316
576 6.66914 12.5763 20.0086
577 8.89276 11.004 20.0085
578 8.89253 12.5761 17.7855
579 11.1161 11.004 17.7855
580 11.1159 12.5763 15.5623
581 13.3394 11.0043 15.5625
582 13.3392 12.5765 13.3392
583 15.5625 11.0043 13.3394
584 15.5623 12.5763 11.116
585 17.7855 11.004 11.1161
586 17.7855 12.5761 8.89256
587 20.0085 11.004 8.89279
588 20.0086 12.5763 6.66918
589 22.2316 11.0043 6.66955
590 22.2318 12.5765 4.44592
591 24.4548 11.0047 4.44621
592 24.4551 12.5769 2.22261
593 26.6784 11.0058 2.22284
594 26.6784 12.5772 31.1271
595 28.9024 11.0073 31.1271
596 2.22254 12.5775 28.9026
597 4.44695 11.0057 28.9023
598 4.44644 12.5766 26.6786
599 6.67023 11.0046 26.6787
600 6.66968 12.5766 24.4554
601 8.89324 11.0042 24.4552
602 8.89284 12.5763 22.2321
603 11.1164 11.004 22.232
604 11.1161 12.5762 20.0089
605 13.3396 11.004 20.009
606 13.3394 12.5764 17.7858
607 15.5628 11.0042 17.786
608 15.5627 12.5766 15.5627
609 17.786 11.0042 15.5628
610 17.7858 12.5764 13.3394
611 20.0091 11.004 13.3396
612 20.0089 12.5762 11.1161
613 22.2321 11.004 11.1164
614 22.2321 12.5763 8.89287
615 24.4553 11.0042 8.89327
616 24.4555 12.5766 6.66972
617 26.6788 11.0046 6.67027
618 26.6787 12.5766 4.44648
619 28.9024 11.0057 4.447
620 28.9026 12.5775 2.22259
621 6.67014 12.5765 28.9026
622 8.8937 11.0044 28.9026
623 8.89331 12.5764 26.6792
624 11.1168 11.004 26.679
625 11.1164 12.5761 24.4557
626 13.3399 11.0037 24.4557
627 13.3396 12.576 22.2324
628 15.563 11.0037 22.2326
629 15.5629 12.5761 20.0093
630 17.7862 11.0038 20.0093
631 17.7861 12.5763 17.7861
632 20.0094 11.0038 17.7862
633 20.0093 12.5761 15.5629
634 22.2326 11.0037 15.563
635 22.2325 12.576 13.3396
636 24.4558 11.0037 13.3399
637 24.4557 12.5761 11.1165
638 26.6791 11.004 11.1168
639 26.6792 12.5764 8.89334
640 28.9027 11.0044 8.89373
641 28.9026 12.5765 6.67018
642 11.1167 12.5761 28.903
643 13.3399 11.0036 28.9029
644 13.3399 12.5758 26.6794
645 15.563 11.0035 26.6794
646 15.5631 12.5757 24.456
647 17.7862 11.0037 24.4559
648 17.7864 12.576 22.2327
649 20.0094 11.004 22.2326
650 20.0096 12.5761 20.0095
651 22.2326 11.004 20.0094
652 22.2327 12.576 17.7864
653 24.456 11.0037 17.7862
654 24.456 12.5757 15.5631
655 26.6795 11.0035 15.563
656 26.6794 12.5758 13.3399
657 28.903 11.0036 13.3399
658 28.903 12.5761 11.1167
659 15.563 12.5756 28.903
660 17.7859 11.0037 28.903
661 17.7862 12.5759 26.6795
662 20.009 11.0041 26.6794
663 20.0095 12.5764 24.4561
664 22.2326 11.0045 24.456
665 22.2329 12.5766 22.2329
666 24.456 11.0045 22.2325
667 24.4562 12.5764 20.0095
668 26.6794 11.0041 20.009
669 26.6796 12.5759 17.7862
670 28.9031 11.0037 17.7859
671 28.9031 12.5756 15.563
672 20.0091 12.5765 28.9032
673 22.2319 11.0048 28.9032
674 22.2325 12.5768 26.6798
675 24.4555 11.0048 26.6795
676 24.4561 12.5769 24.4561
677 26.6796 11.0048 24.4555
678 26.6798 12.5768 22.2324
679 28.9032 11.0048 22.2319
680 28.9033 12.5765 20.0091
681 24.4555 12.577 28.9032
682 26.6786 11.0058 28.9028
683 26.6792 12.5768 26.6791
684 28.9029 11.0058 26.6786
685 28.9033 12.577 24.4554
686 28.9027 12.5775 28.9027
687 31.1263 7.86539 2.22434
688 31.1271 9.43832 31.127
689 2.22428 7.86539 31.1263
690 31.1263 7.86276 6.67219
691 31.1266 9.43465 4.44734
692 2.22198 7.86144 4.44587
693 2.22238 9.43437 2.22243
694 4.44582 7.86144 2.22204
695 4.44729 9.43465 31.1266
696 6.67215 7.86276 31.1263
697 31.1265 7.86012 11.1182
698 31.1265 9.43303 8.8946
699 2.22192 7.85998 8.89389
700 2.22197 9.43261 6.66991
701 4.44569 7.85999 6.6696
702 4.44599 9.43265 4.44604
703 6.66956 7.85999 4.44573
704 6.66988 9.43261 2.22202
705 8.89386 7.85998 2.22198
706 8.89457 9.43303 31.1264
707 11.1182 7.86012 31.1265
708 31.1268 7.85887 15.5629
709 31.1267 9.43143 13.3401
710 2.22178 7.85907 13.34
711 2.22169 9.43161 11.1167
712 4.44547 7.85928 11.1164
713 4.44544 9.43174 8.89302
714 6.66905 7.85932 8.89278
715 6.66916 9.43174 6.66919
716 8.89275 7.85932 6.66909
717 8.89299 9.43174 4.44549
718 11.1164 7.85928 4.44552
719 11.1167 9.43161 2.22175
720 13.34 7.85907 2.22183
721 13.3401 9.43143 31.1266
722 15.5629 7.85887 31.1267
723 31.1269 7.8597 20.0085
724 31.1268 9.43143 17.7856
725 2.2219 7.85915 17.7854
726 2.22179 9.43126 15.5625
727 4.4455 7.85896 15.5623
728 4.4454 9.43137 13.3393
729 6.66904 7.85909 13.3392
730 6.66897 9.43149 11.116
731 8.89249 7.8593 11.1159
732 8.89248 9.43154 8.8925
733 11.1159 7.8593 8.89252
734 11.1159 9.43149 6.669
735 13.3392 7.85909 6.66907
736 13.3393 9.43137 4.44545
737 15.5623 7.85896 4.44555
738 15.5625 9.43126 2.22185
739 17.7854 7.85915 2.22195
740 17.7856 9.43143 31.1267
741 20.0085 7.8597 31.1268
742 31.127 7.86254 24.4529
743 31.1269 9.43288 22.2309
744 2.22219 7.86061 22.2306
745 2.22187 9.432 20.0081
746 4.4458 7.85971 20.008
747 4.4455 9.43153 17.7851
748 6.66925 7.85923 17.7851
749 6.66906 9.43144 15.5621
750 8.89262 7.85925 15.5622
751 8.89251 9.43163 13.3391
752 11.116 7.8595 13.3392
753 11.1159 9.43177 11.1159
754 13.3391 7.8595 11.116
755 13.3391 9.43163 8.89254
756 15.5622 7.85925 8.89265
757 15.5621 9.43144 6.6691
758 17.7851 7.85923 6.66929
759 17.7851 9.43153 4.44555
760 20.008 7.85971 4.44584
761 20.0081 9.432 2.22193
762 22.2306 7.86061 2.22225
763 22.231 9.43288 31.1268
764 24.453 7.86254 31.1269
765 31.1267 7.86798 28.9
766 31.1272 9.43548 26.6773
767 2.22302 7.8634 26.6773
768 2.22241 9.43344 24.4543
769 4.44649 7.86091 24.4542
770 4.44589 9.43231 22.2312
771 6.66974 7.85997 22.2312
772 6.66934 9.43188 20.0081
773 8.89304 7.85952 20.0082
774 8.8927 9.43166 17.7852
775 11.1162 7.85942 17.7854
776 11.116 9.43183 15.5623
777 13.3394 7.8597 15.5625
778 13.3393 9.43202 13.3393
779 15.5625 7.8597 13.3394
780 15.5623 9.43183 11.116
781 17.7854 7.85942 11.1163
782 17.7852 9.43166 8.89273
783 20.0082 7.85952 8.89307
784 20.0081 9.43188 6.66938
785 22.2312 7.85997 6.66977
786 22.2312 9.43231 4.44594
787 24.4542 7.86091 4.44654
788 24.4543 9.43344 2.22247
789 26.6773 7.8634 2.22308
790 26.6773 9.43548 31.1271
791 28.9 7.86798 31.1266
792 2.2232 9.4359 28.9022
793 4.44776 7.86308 28.9016
794 4.44681 9.43356 26.678
795 6.67089 7.86091 26.6779
796 6.66992 9.43238 24.4547
797 8.8938 7.85988 24.4548
798 8.89317 9.43192 22.2316
799 11.1168 7.85943 22.2318
800 11.1164 9.43174 20.0086
801 13.3398 7.85932 20.0089
802 13.3395 9.43189 17.7857
803 15.5628 7.85954 17.786
804 15.5627 9.43209 15.5627
805 17.786 7.85954 15.5628
806 17.7858 9.43189 13.3395
807 20.009 7.85932 13.3398
808 20.0087 9.43174 11.1164
809 22.2318 7.85943 11.1168
810 22.2316 9.43192 8.8932
811 24.4548 7.85988 8.89383
812 24.4548 9.43238 6.66996
813 26.6779 7.86091 6.67093
814 26.6781 9.43356 4.44686
815 28.9017 7.86308 4.44781
816 28.9023 9.4359 2.22326
817 6.67086 9.43329 28.9022
818 8.89468 7.86039 28.902
819 8.89391 9.43222 26.6786
820 11.1174 7.85957 26.6787
821 11.1169 9.43172 24.4553
822 13.3402 7.85909 24.4556
823 13.3399 9.43153 22.2323
824 15.5631 7.85899 22.2325
825 15.5629 9.4316 20.0092
826 17.7861 7.85907 20.0093
827 17.7861 9.4317 17.7861
828 20.0093 7.85907 17.7861
829 20.0093 9.4316 15.5629
830 22.2326 7.85899 15.5631
831 22.2323 9.43153 13.3399
832 24.4556 7.85909 13.3403
833 24.4553 9.43172 11.1169
834 26.6787 7.85957 11.1174
835 26.6786 9.43222 8.89394
836 28.9021 7.86039 8.89471
837 28.9022 9.43329 6.6709
838 11.1172 9.4318 28.9026
839 13.3405 7.85911 28.9028
840 13.3402 9.43141 26.6792
841 15.5632 7.85886 26.6794
842 15.5631 9.43128 24.4559
843 17.7861 7.85899 24.456
844 17.7861 9.43139 22.2326
845 20.0092 7.85921 22.2325
846 20.0093 9.43146 20.0093
847 22.2325 7.85921 20.0092
848 22.2326 9.43139 17.7861
849 24.456 7.85899 17.7861
850 24.456 9.43128 15.5631
851 26.6795 7.85886 15.5632
852 26.6792 9.43141 13.3402
853 28.9029 7.85911 13.3405
854 28.9026 9.4318 11.1172
855 15.563 9.43119 28.903
856 17.786 7.85906 28.9031
857 17.786 9.43137 26.6794
858 20.0091 7.85947 26.6794
859 20.0092 9.43174 24.4558
860 22.2325 7.85982 24.4559
861 22.2325 9.4319 22.2325
862 24.4559 7.85982 22.2325
863 24.4559 9.43174 20.0092
864 26.6794 7.85947 20.0091
865 26.6794 9.43137 17.786
866 28.9031 7.85906 17.786
867 28.9031 9.43119 15.563
868 20.0087 9.4319 28.9029
869 22.2315 7.86033 28.9029
870 22.2321 9.43225 26.6794
871 24.4553 7.8607 26.6792
872 24.4558 9.43243 24.4558
873 26.6792 7.8607 24.4553
874 26.6794 9.43225 22.2321
875 28.903 7.86033 22.2315
876 28.903 9.4319 20.0087
877 24.4549 9.43333 28.9029
878 26.6779 7.863 28.9026
879 26.6789 9.43349 26.6789
880 28.9026 7.863 26.6778
881 28.903 9.43333 24.4548
882 28.9023 9.43627 28.9022
883 31.1227 4.72253 2.23207
884 31.126 6.30702 31.1259
885 2.23202 4.72253 31.1226
886 31.1259 4.72179 6.67889
887 31.1257 6.29384 4.45036
888 2.22207 4.71751 4.44681
889 2.22069 6.28926 2.22074
890 4.44677 4.71751 2.22212
891 4.45031 6.29384 31.1256
892 6.67886 4.72179 31.1259
893 31.1266 4.71508 11.1185
894 31.1263 6.28994 8.89708
895 2.22227 4.71638 8.89551
896 2.22194 6.28883 6.67064
897 4.44577 4.71553 6.66906
898 4.44542 6.28827 4.44547
899 6.66902 4.71553 4.44582
900 6.67061 6.28884 2.222
901 8.89548 4.71638 2.22232
902 8.89705 6.28994 31.1262
903 11.1185 4.71508 31.1265
904 31.1269 4.71399 15.5632
905 31.1267 6.28664 13.3405
906 2.22176 4.71417 13.3403
907 2.22196 6.28745 11.1179
908 4.44568 4.71475 11.1169
909 4.44569 6.28736 8.8932
910 6.6691 4.71506 8.89279
911 6.66935 6.28771 6.66939
912 8.89276 4.71506 6.66914
913 8.89318 6.28736 4.44574
914 11.1169 4.71475 4.44573
915 11.1179 6.28745 2.22202
916 13.3403 4.71417 2.22182
917 13.3405 6.28664 31.1266
918 15.5632 4.71399 31.1268
919 31.1273 4.71525 20.009
920 31.127 6.28682 17.7859
921 2.2221 4.7145 17.7858
922 2.22184 6.28644 15.5627
923 4.4455 4.71399 15.5625
924 4.44549 6.28662 13.3397
925 6.66903 4.71423 13.3393
926 6.66904 6.28692 11.1161
927 8.89247 4.71462 11.1159
928 8.89253 6.28703 8.89256
929 11.1159 4.71462 8.8925
930 11.1161 6.28692 6.66908
931 13.3393 4.71423 6.66907
932 13.3396 6.28662 4.44554
933 15.5625 4.71399 4.44555
934 15.5627 6.28644 2.2219
935 17.7858 4.7145 2.22215
936 17.7859 6.28682 31.1269
937 20.009 4.71525 31.1273
938 31.1271 4.71683 24.4546
939 31.127 6.28818 22.2315
940 2.22254 4.71582 22.2317
941 2.22217 6.28742 20.0085
942 4.44606 4.71517 20.0084
943 4.4457 6.28682 17.7852
944 6.66935 4.71442 17.7852
945 6.66913 6.28661 15.5622
946 8.89263 4.71434 15.5622
947 8.89254 6.28687 13.3391
948 11.1159 4.71469 13.3391
949 11.1159 6.28706 11.1159
950 13.3391 4.71469 11.1159
951 13.3391 6.28687 8.89257
952 15.5622 4.71434 8.89266
953 15.5622 6.28661 6.66916
954 17.7852 4.71442 6.66939
955 17.7852 6.28682 4.44574
956 20.0085 4.71517 4.44611
957 20.0085 6.28742 2.22222
958 22.2318 4.71582 2.2226
959 22.2315 6.28818 31.127
960 24.4546 4.71683 31.127
961 31.1257 4.7336 28.8856
962 31.127 6.29426 26.673
963 2.2236 4.72095 26.6731
964 2.22286 6.29007 24.4526
965 4.44723 4.7166 24.4537
966 4.44632 6.28808 22.231
967 6.67019 4.71558 22.2312
968 6.6696 6.28729 20.0081
969 8.89322 4.71475 20.0083
970 8.89285 6.2869 17.7852
971 11.1163 4.71458 17.7854
972 11.1161 6.28707 15.5623
973 13.3394 4.71492 15.5625
974 13.3393 6.28729 13.3393
975 15.5625 4.71492 13.3394
976 15.5623 6.28707 11.1161
977 17.7854 4.71458 11.1163
978 17.7852 6.2869 8.89288
979 20.0083 4.71475 8.89325
980 20.0081 6.28729 6.66964
981 22.2313 4.71558 6.67023
982 22.231 6.28808 4.44637
983 24.4538 4.7166 4.44728
984 24.4526 6.29007 2.22292
985 26.6731 4.72095 2.22366
986 26.673 6.29426 31.127
987 28.8856 4.7336 31.1257
988 2.22352 6.29463 28.9007
989 4.45017 4.71942 28.8993
990 4.44732 6.28992 26.6772
991 6.67171 4.71663 26.677
992 6.67056 6.28838 24.4542
993 8.89434 4.71556 24.4547
994 8.89354 6.28745 22.2314
995 11.117 4.71467 22.2318
996 11.1166 6.28701 20.0085
997 13.3399 4.71445 20.0089
998 13.3396 6.28714 17.7857
999 15.5629 4.71473 17.786
1000 15.5627 6.28737 15.5627
1001 17.786 4.71473 15.5629
1002 17.7857 6.28714 13.3396
1003 20.0089 4.71445 13.3399
1004 20.0085 6.28701 11.1166
1005 22.2318 4.71467 11.117
1006 22.2314 6.28745 8.89357
1007 24.4547 4.71556 8.89436
1008 24.4542 6.28838 6.6706
1009 26.6771 4.71663 6.67175
1010 26.6772 6.28992 4.44737
1011 28.8994 4.71942 4.45022
1012 28.9008 6.29463 2.22358
1013 6.67224 6.28985 28.9013
1014 8.89669 4.71667 28.9015
1015 8.89467 6.28803 26.678
1016 11.1182 4.715 26.6786
1017 11.1173 6.28717 24.4551
1018 13.3405 4.71418 24.4556
1019 13.3401 6.28673 22.2322
1020 15.5633 4.714 22.2326
1021 15.563 6.28678 20.0092
1022 17.7862 4.71419 20.0094
1023 17.7861 6.28691 17.7861
1024 20.0094 4.71419 17.7862
1025 20.0093 6.28678 15.563
1026 22.2326 4.714 15.5633
1027 22.2322 6.28673 13.3401
1028 24.4556 4.71418 13.3405
1029 24.4551 6.28717 11.1174
1030 26.6786 4.715 11.1182
1031 26.6781 6.28803 8.8947
1032 28.9016 4.71667 8.89672
1033 28.9013 6.28985 6.67228
1034 11.1185 6.28758 28.9023
1035 13.3409 4.71427 28.9029
1036 13.3406 6.28669 26.6791
1037 15.5635 4.71394 26.6795
1038 15.5633 6.28641 24.4559
1039 17.7865 4.71415 24.4562
1040 17.7862 6.28652 22.2326
1041 20.0095 4.71443 22.2328
1042 20.0093 6.28661 20.0093
1043 22.2328 4.71443 20.0095
1044 22.2327 6.28652 17.7862
1045 24.4562 4.71415 17.7865
1046 24.456 6.28641 15.5633
1047 26.6795 4.71394 15.5635
1048 26.6792 6.28669 13.3406
1049 28.9029 4.71427 13.3409
1050 28.9024 6.28758 11.1185
1051 15.5633 6.28645 28.9031
1052 17.7865 4.71443 28.9033
1053 17.7863 6.28665 26.6796
1054 20.0097 4.715 26.6799
1055 20.0094 6.28704 24.4561
1056 22.233 4.71541 24.4563
1057 22.2327 6.28722 22.2326
1058 24.4564 4.71541 22.233
1059 24.4561 6.28704 20.0094
1060 26.6799 4.715 20.0097
1061 26.6796 6.28665 17.7863
1062 28.9034 4.71443 17.7865
1063 28.9031 6.28645 15.5633
1064 20.0091 6.28732 28.9032
1065 22.2323 4.71572 28.9034
1066 22.2324 6.28778 26.6795
1067 24.4559 4.7161 26.6794
1068 24.4559 6.28803 24.4559
1069 26.6795 4.7161 24.4559
1070 26.6795 6.28778 22.2324
1071 28.9035 4.71572 22.2323
1072 28.9033 6.28732 20.0091
1073 24.4545 6.28919 28.9027
1074 26.6776 4.71801 28.9022
1075 26.6786 6.28965 26.6786
1076 28.9023 4.71801 26.6776
1077 28.9028 6.28919 24.4545