ITEM: TIMESTEP
12
ITEM: NUMBER OF ATOMS
14401
ITEM: BOX BOUNDS pp pp pp
8.8842503095653780e-02 6.5262563763605002e+01
1.1770510865790296e-01 6.1496191599689794e+01
-2.2325705499939485e+01 7.5684905275518872e+01
ITEM: ATOMS id type x y z
1 1 0.994036 28.2495 0.00530312
5 1 0.0888569 23.1346 0.00532053
3 1 0.994032 20.5772 0.00532346
4 1 0.994043 24.4134 2.16422
8 1 0.0888564 26.9708 2.16421
6 1 2.80442 23.1346 0.00531912
7 1 0.994039 28.2495 4.39078
20 1 65.2626 15.4623 0.00532445
9 1 2.80443 26.9708 2.16421
10 1 1.89923 25.6921 0.00531317
11 1 4.61481 25.6921 0.00530661
28 1 0.0888575 23.1346 4.3908
13 1 1.89923 29.5282 2.1642
14 1 4.61481 29.5282 2.16422
15 1 3.70962 28.2495 0.00530204
16 1 6.4252 28.2495 0.00531843
35 1 0.0888574 26.9708 6.61967
18 1 0.994028 12.9049 0.00532449
19 1 0.994035 16.741 2.16423
5351 1 27.2445 30.8069 22.2219
21 1 2.80441 15.4623 0.00532602
22 1 0.994028 20.5772 4.3908
7909 1 32.6757 15.4623 22.2218
24 1 2.80442 19.2985 2.16423
25 1 1.89922 18.0198 0.00532565
26 1 4.61479 18.0198 0.0053251
27 1 0.994039 24.4134 6.61967
5323 1 29.9601 30.8069 17.7642
29 1 2.80441 23.1346 4.39079
30 1 1.89922 21.8559 2.16423
31 1 4.6148 21.8559 2.16422
32 1 3.70961 20.5772 0.00532158
33 1 6.42518 20.5772 0.00531628
34 1 0.994039 28.2495 8.84855
94 1 0.0888576 26.9708 11.0774
36 1 2.80442 26.9708 6.61967
37 1 1.89923 25.6921 4.39079
38 1 4.6148 25.6921 4.39079
39 1 3.70961 24.4134 2.16422
40 1 6.4252 24.4134 2.16422
41 1 5.52 23.1346 0.00531147
42 1 8.23558 23.1346 0.00531312
106 1 0.0888562 30.8069 13.3063
44 1 1.89923 29.5282 6.61967
45 1 4.6148 29.5282 6.61968
46 1 3.70961 28.2495 4.39079
47 1 6.42518 28.2495 4.3908
48 1 5.52 26.9708 2.16422
49 1 8.23557 26.9708 2.16424
50 1 7.33039 25.6921 0.00531385
51 1 10.046 25.6921 0.00533868
52 1 7.33037 29.5282 2.16425
53 1 10.046 29.5282 2.16428
54 1 9.14077 28.2495 0.00535267
55 1 11.8563 28.2495 0.00538446
143 1 65.2626 7.79001 4.39079
57 1 0.994026 5.23257 0.00530688
58 1 0.994034 9.06873 2.16422
67 1 65.2626 15.4623 4.3908
60 1 2.80441 7.79001 0.00531992
61 1 0.994026 12.9049 4.3908
5157 1 27.2445 30.8068 8.84868
63 1 2.80441 11.6262 2.16423
64 1 1.89922 10.3475 0.00532391
65 1 4.6148 10.3475 0.00532494
66 1 0.994035 16.741 6.61968
159 1 0.0888434 15.4623 8.84856
68 1 2.80441 15.4623 4.3908
69 1 1.89922 14.1836 2.16423
70 1 4.6148 14.1836 2.16423
71 1 3.7096 12.9049 0.00532611
72 1 6.42518 12.9049 0.00532543
73 1 0.994032 20.5772 8.84855
170 1 0.0888524 19.2985 11.0774
75 1 2.80442 19.2985 6.61968
76 1 1.89923 18.0198 4.3908
77 1 4.6148 18.0198 4.3908
78 1 3.7096 16.741 2.16423
79 1 6.42518 16.741 2.16423
80 1 5.51999 15.4623 0.00532559
81 1 8.23556 15.4623 0.00532263
82 1 0.994036 24.4134 11.0774
5141 1 21.8134 30.8069 13.3064
84 1 2.80441 23.1346 8.84855
85 1 1.89922 21.8559 6.61968
86 1 4.6148 21.8559 6.61967
87 1 3.70961 20.5772 4.3908
88 1 6.42518 20.5772 4.3908
89 1 5.51999 19.2985 2.16423
90 1 8.23557 19.2985 2.16422
91 1 7.33037 18.0198 0.00532132
92 1 10.0459 18.0198 0.00531618
93 1 0.994036 28.2495 13.3063
5012 1 29.9601 30.8069 4.39092
95 1 2.80442 26.9708 11.0774
96 1 1.89923 25.6921 8.84855
97 1 4.6148 25.6921 8.84855
98 1 3.70961 24.4134 6.61967
99 1 6.42518 24.4134 6.61967
100 1 5.52 23.1346 4.39079
101 1 8.23557 23.1346 4.39079
102 1 7.33038 21.8559 2.16422
103 1 10.0459 21.8559 2.16422
104 1 9.14077 20.5772 0.00531324
105 1 11.8563 20.5772 0.00531431
183 1 0.0888542 23.1346 13.3063
107 1 1.89923 29.5282 11.0774
108 1 4.6148 29.5282 11.0774
109 1 3.70961 28.2495 8.84855
110 1 6.42517 28.2495 8.84857
111 1 5.51999 26.9708 6.61967
112 1 8.23557 26.9708 6.6197
113 1 7.33038 25.6921 4.3908
114 1 10.0459 25.6921 4.39083
115 1 9.14076 24.4133 2.16423
116 1 11.8563 24.4134 2.16426
117 1 10.9512 23.1346 0.00532526
118 1 13.6667 23.1346 0.00535282
119 1 7.33037 29.5282 6.6197
120 1 10.0459 29.5282 6.61972
121 1 9.14076 28.2495 4.39084
122 1 11.8563 28.2495 4.39085
123 1 10.9511 26.9708 2.16427
124 1 13.6667 26.9708 2.16429
125 1 12.7615 25.6921 0.00537229
126 1 15.4771 25.6921 0.00537892
198 1 0.0888434 26.9708 15.5352
264 1 0.0888463 3.95386 6.61967
129 1 12.7615 29.5282 2.16429
130 1 15.4771 29.5282 2.16426
131 1 14.5719 28.2495 0.00537396
132 1 17.2875 28.2495 0.00535308
83 1 0.0888582 23.1346 8.84855
134 1 0.994036 1.39641 2.16421
284 1 65.2626 11.6262 11.0774
273 1 65.2626 7.79001 8.84855
137 1 0.994031 5.23257 4.39079
7425 1 32.6757 30.8069 17.7642
139 1 2.80442 3.95385 2.16421
140 1 1.89922 2.67513 0.00530083
141 1 4.6148 2.67513 0.00530266
142 1 0.99403 9.06873 6.61967
297 1 0.0888428 15.4623 13.3063
144 1 2.80441 7.79001 4.39079
145 1 1.89922 6.51129 2.16422
146 1 4.6148 6.51128 2.16422
147 1 3.70961 5.23256 0.00531319
148 1 6.42519 5.23256 0.00531075
149 1 0.99403 12.9049 8.84856
7409 1 32.6757 26.9707 15.5353
151 1 2.80442 11.6262 6.61968
152 1 1.89922 10.3475 4.3908
153 1 4.6148 10.3475 4.3908
154 1 3.7096 9.06873 2.16423
155 1 6.42519 9.06872 2.16423
156 1 5.52 7.79 0.0053193
157 1 8.23557 7.79 0.00531372
158 1 0.994034 16.741 11.0774
312 1 0.088855 19.2985 15.5352
160 1 2.80441 15.4623 8.84856
161 1 1.89922 14.1836 6.61968
162 1 4.6148 14.1836 6.61968
163 1 3.70961 12.9049 4.3908
164 1 6.42518 12.9049 4.3908
165 1 5.51999 11.6262 2.16423
166 1 8.23557 11.6262 2.16423
167 1 7.33038 10.3474 0.00532282
168 1 10.0459 10.3474 0.0053155
169 1 0.994032 20.5772 13.3063
437 1 65.2626 3.95386 11.0774
171 1 2.80442 19.2985 11.0774
172 1 1.89923 18.0198 8.84856
173 1 4.61479 18.0198 8.84856
174 1 3.7096 16.741 6.61968
175 1 6.42518 16.741 6.61968
176 1 5.51999 15.4623 4.3908
177 1 8.23556 15.4623 4.3908
178 1 7.33037 14.1836 2.16423
179 1 10.0459 14.1836 2.16423
180 1 9.14076 12.9049 0.00532177
181 1 11.8563 12.9049 0.00531448
182 1 0.994034 24.4134 15.5352
649 1 2.80442 0.11771 13.3063
184 1 2.80441 23.1346 13.3063
185 1 1.89922 21.8559 11.0774
186 1 4.6148 21.8559 11.0774
187 1 3.70961 20.5772 8.84856
188 1 6.42518 20.5772 8.84855
189 1 5.51999 19.2985 6.61968
190 1 8.23556 19.2985 6.61967
191 1 7.33038 18.0198 4.3908
192 1 10.0459 18.0198 4.39079
193 1 9.14075 16.741 2.16422
194 1 11.8563 16.741 2.16422
195 1 10.9511 15.4623 0.00531698
196 1 13.6667 15.4623 0.00530773
197 1 0.994034 28.2495 17.7641
890 1 2.80441 0.11771 17.7641
199 1 2.80441 26.9708 15.5352
200 1 1.89923 25.6921 13.3063
201 1 4.61479 25.6921 13.3063
202 1 3.7096 24.4134 11.0774
203 1 6.42518 24.4134 11.0774
204 1 5.51999 23.1346 8.84855
205 1 8.23556 23.1346 8.84856
206 1 7.33037 21.8559 6.61967
207 1 10.0459 21.8559 6.61968
208 1 9.14076 20.5772 4.39079
209 1 11.8563 20.5772 4.3908
210 1 10.9511 19.2985 2.16422
211 1 13.6667 19.2985 2.16422
212 1 12.7615 18.0198 0.00531131
213 1 15.4771 18.0198 0.00531356
214 1 2.80441 30.8069 17.7641
215 1 1.89922 29.5282 15.5352
216 1 4.61479 29.5282 15.5352
217 1 3.70961 28.2495 13.3063
218 1 6.42518 28.2495 13.3063
219 1 5.51999 26.9708 11.0774
220 1 8.23556 26.9708 11.0775
221 1 7.33037 25.6921 8.84856
222 1 10.0459 25.6921 8.84858
223 1 9.14076 24.4133 6.61969
224 1 11.8563 24.4133 6.61971
225 1 10.9511 23.1346 4.39081
226 1 13.6667 23.1346 4.39083
227 1 12.7615 21.8559 2.16424
228 1 15.4771 21.8559 2.16426
229 1 14.5719 20.5772 0.00532926
230 1 17.2875 20.5772 0.00534642
446 1 0.0888456 7.79002 13.3063
232 1 7.33036 29.5282 11.0775
233 1 10.0459 29.5282 11.0775
234 1 9.14075 28.2495 8.84859
235 1 11.8563 28.2495 8.84861
236 1 10.9511 26.9708 6.61972
237 1 13.6667 26.9708 6.61973
238 1 12.7615 25.6921 4.39085
239 1 15.4771 25.6921 4.39086
240 1 14.5719 24.4133 2.16428
241 1 17.2875 24.4133 2.16429
242 1 16.3823 23.1346 0.0053712
243 1 19.0979 23.1346 0.00538112
461 1 65.2626 11.6262 15.5352
478 1 65.2626 15.4623 17.7641
246 1 12.7615 29.5282 6.61973
247 1 15.4771 29.5282 6.61973
248 1 14.5719 28.2495 4.39086
249 1 17.2875 28.2495 4.39084
250 1 16.3823 26.9708 2.16428
251 1 19.0979 26.9708 2.16426
252 1 18.1927 25.6921 0.00537006
253 1 20.9082 25.692 0.00535078
329 1 0.0888451 23.1346 17.7641
255 1 18.1927 29.5282 2.16425
256 1 20.9083 29.5282 2.16426
257 1 20.0031 28.2495 0.00534322
258 1 22.7186 28.2495 0.00535834
348 1 0.0888456 26.9708 19.993
260 1 0.994048 1.39642 6.61967
518 1 65.2626 23.1346 22.2218
1130 1 2.80441 0.117711 22.2218
263 1 0.994033 5.23257 8.84855
1137 1 5.51999 0.117709 17.7641
265 1 2.80442 3.95385 6.61967
266 1 1.89923 2.67513 4.39078
267 1 4.61479 2.67513 4.39078
268 1 3.70961 1.39641 2.1642
269 1 6.42519 1.3964 2.16421
5352 1 29.9601 30.8069 22.2219
497 1 65.2626 19.2985 19.993
272 1 0.994035 9.06873 11.0774
5315 1 24.529 30.8069 22.2219
274 1 2.80441 7.79001 8.84855
275 1 1.89922 6.51129 6.61967
276 1 4.6148 6.51128 6.61967
277 1 3.70961 5.23256 4.39079
278 1 6.42518 5.23257 4.39079
279 1 5.51999 3.95385 2.16421
280 1 8.23558 3.95384 2.16422
281 1 7.33039 2.67512 0.00530946
282 1 10.046 2.67512 0.00533638
283 1 0.994032 12.9049 13.3063
540 1 0.0888442 26.9708 24.4507
285 1 2.80441 11.6262 11.0774
286 1 1.89922 10.3475 8.84856
287 1 4.61479 10.3475 8.84855
288 1 3.70961 9.06873 6.61968
289 1 6.42519 9.06872 6.61968
290 1 5.52 7.79 4.3908
291 1 8.23556 7.79001 4.3908
292 1 7.33038 6.51128 2.16422
293 1 10.046 6.51128 2.16422
294 1 9.14077 5.23256 0.00531328
295 1 11.8563 5.23255 0.0053351
296 1 0.994034 16.741 15.5352
1641 1 24.529 0.117738 17.7641
298 1 2.80441 15.4623 13.3063
299 1 1.89922 14.1836 11.0774
300 1 4.6148 14.1836 11.0774
301 1 3.7096 12.9049 8.84856
302 1 6.42518 12.9049 8.84856
303 1 5.51999 11.6262 6.61968
304 1 8.23557 11.6262 6.61968
305 1 7.33038 10.3474 4.3908
306 1 10.0459 10.3475 4.3908
307 1 9.14076 9.06872 2.16422
308 1 11.8563 9.06871 2.16422
309 1 10.9512 7.78999 0.00531265
310 1 13.6667 7.78999 0.00532885
311 1 0.994034 20.5772 17.7641
7361 1 32.6757 11.6261 6.61971
313 1 2.80441 19.2985 15.5352
314 1 1.89922 18.0198 13.3063
315 1 4.61479 18.0198 13.3063
316 1 3.7096 16.741 11.0774
317 1 6.42518 16.741 11.0774
318 1 5.51999 15.4623 8.84856
319 1 8.23556 15.4623 8.84855
320 1 7.33037 14.1836 6.61968
321 1 10.0459 14.1836 6.61967
322 1 9.14076 12.9049 4.3908
323 1 11.8563 12.9049 4.39079
324 1 10.9511 11.6262 2.16422
325 1 13.6667 11.6262 2.16422
326 1 12.7615 10.3474 0.00531028
327 1 15.4771 10.3474 0.00531632
328 1 0.994035 24.4134 19.993
1138 1 8.23555 0.11771 17.7641
330 1 2.80441 23.1346 17.7641
331 1 1.89922 21.8559 15.5352
332 1 4.61479 21.8559 15.5352
333 1 3.7096 20.5772 13.3063
334 1 6.42517 20.5772 13.3063
335 1 5.51998 19.2985 11.0774
336 1 8.23556 19.2985 11.0774
337 1 7.33037 18.0198 8.84855
338 1 10.0459 18.0198 8.84855
339 1 9.14075 16.741 6.61968
340 1 11.8563 16.741 6.61967
341 1 10.9511 15.4623 4.39079
342 1 13.6667 15.4623 4.39079
343 1 12.7615 14.1836 2.16422
344 1 15.4771 14.1836 2.16421
345 1 14.5719 12.9049 0.00530646
346 1 17.2875 12.9049 0.00530399
347 1 0.994036 28.2495 22.2218
651 1 0.0888471 3.95386 15.5352
349 1 2.80441 26.9708 19.993
350 1 1.89922 25.6921 17.7641
351 1 4.61479 25.6921 17.7641
352 1 3.7096 24.4134 15.5352
353 1 6.42517 24.4134 15.5352
354 1 5.51998 23.1346 13.3063
355 1 8.23555 23.1346 13.3063
356 1 7.33037 21.8559 11.0774
357 1 10.0459 21.8559 11.0774
358 1 9.14075 20.5772 8.84856
359 1 11.8563 20.5772 8.84856
360 1 10.9511 19.2985 6.61967
361 1 13.6667 19.2985 6.61968
362 1 12.7615 18.0198 4.39079
363 1 15.4771 18.0198 4.39079
364 1 14.5719 16.741 2.16421
365 1 17.2875 16.741 2.16421
366 1 16.3823 15.4623 0.00530018
367 1 19.0979 15.4623 0.00529818
368 1 2.80441 30.8069 22.2218
369 1 1.89922 29.5282 19.993
370 1 4.61479 29.5282 19.993
371 1 3.7096 28.2495 17.7641
372 1 6.42517 28.2495 17.7641
373 1 5.51998 26.9708 15.5352
374 1 8.23555 26.9708 15.5352
375 1 7.33037 25.6921 13.3063
376 1 10.0459 25.6921 13.3063
377 1 9.14075 24.4134 11.0774
378 1 11.8563 24.4133 11.0775
379 1 10.9511 23.1346 8.84857
380 1 13.6667 23.1346 8.84859
381 1 12.7615 21.8559 6.6197
382 1 15.4771 21.8559 6.61971
383 1 14.5719 20.5772 4.39081
384 1 17.2875 20.5772 4.39083
385 1 16.3823 19.2985 2.16424
386 1 19.0979 19.2985 2.16425
387 1 18.1927 18.0198 0.00532001
388 1 20.9082 18.0197 0.00533689
389 1 8.23555 30.8069 17.7641
390 1 7.33037 29.5282 15.5352
391 1 10.0459 29.5282 15.5352
392 1 9.14075 28.2495 13.3063
393 1 11.8563 28.2495 13.3064
394 1 10.9511 26.9708 11.0775
395 1 13.6667 26.9708 11.0775
396 1 12.7615 25.6921 8.8486
397 1 15.4771 25.6921 8.84861
398 1 14.5719 24.4133 6.61973
399 1 17.2875 24.4133 6.61973
400 1 16.3823 23.1346 4.39085
401 1 19.0978 23.1346 4.39085
402 1 18.1927 21.8559 2.16428
403 1 20.9082 21.8559 2.16428
404 1 20.003 20.5772 0.00536697
405 1 22.7186 20.5772 0.00537213
660 1 0.0888443 7.79002 17.7641
407 1 12.7615 29.5282 11.0775
408 1 15.4771 29.5282 11.0775
409 1 14.5719 28.2495 8.84861
410 1 17.2874 28.2495 8.84862
411 1 16.3823 26.9708 6.61973
412 1 19.0978 26.9708 6.61973
413 1 18.1927 25.6921 4.39085
414 1 20.9082 25.692 4.39085
415 1 20.003 24.4133 2.16428
416 1 22.7186 24.4133 2.16427
417 1 21.8134 23.1346 0.00536993
418 1 24.529 23.1346 0.00535792
7538 1 32.6757 23.1346 17.7641
420 1 18.1927 29.5282 6.61972
421 1 20.9082 29.5282 6.61973
422 1 20.003 28.2495 4.39084
423 1 22.7186 28.2495 4.39084
424 1 21.8134 26.9708 2.16426
425 1 24.529 26.9708 2.16426
426 1 23.6238 25.6921 0.00534852
427 1 26.3394 25.6921 0.00535351
675 1 0.0888446 11.6262 19.993
429 1 23.6238 29.5282 2.16427
430 1 26.3394 29.5282 2.16428
431 1 25.4342 28.2495 0.00537155
432 1 28.1498 28.2495 0.00537477
433 1 0.994041 1.39642 11.0774
696 1 65.2626 15.4623 22.2218
5314 1 21.8134 30.8069 22.2219
436 1 0.994036 5.23258 13.3063
1344 1 5.51998 0.117712 22.2218
438 1 2.80442 3.95386 11.0774
439 1 1.89923 2.67514 8.84855
440 1 4.61479 2.67514 8.84855
441 1 3.7096 1.39642 6.61966
442 1 6.42518 1.39641 6.61968
5260 1 27.2445 30.8068 13.3064
5249 1 21.8134 30.8069 17.7642
445 1 0.994034 9.06874 15.5352
718 1 65.2626 19.2985 24.4507
447 1 2.80441 7.79002 13.3063
448 1 1.89922 6.5113 11.0774
449 1 4.6148 6.51129 11.0774
450 1 3.70961 5.23257 8.84855
451 1 6.42517 5.23257 8.84855
452 1 5.51998 3.95385 6.61967
453 1 8.23556 3.95385 6.61968
454 1 7.33038 2.67512 4.3908
455 1 10.0459 2.67514 4.39082
456 1 9.14076 1.39641 2.16425
457 1 11.8563 1.39641 2.16428
5242 1 16.3823 30.8069 22.2219
4065 1 0.0888724 30.8069 8.84855
460 1 0.994035 12.9049 17.7641
7307 1 32.6757 26.9707 11.0775
462 1 2.80441 11.6262 15.5352
463 1 1.89922 10.3475 13.3063
464 1 4.6148 10.3475 13.3063
465 1 3.7096 9.06873 11.0774
466 1 6.42518 9.06873 11.0774
467 1 5.51999 7.79 8.84855
468 1 8.23556 7.79001 8.84856
469 1 7.33037 6.51129 6.61967
470 1 10.0459 6.51129 6.61968
471 1 9.14076 5.23256 4.3908
472 1 11.8563 5.23257 4.39082
473 1 10.9511 3.95385 2.16425
474 1 13.6667 3.95383 2.16428
475 1 12.7616 2.67511 0.00537859
476 1 15.4771 2.67512 0.00539467
477 1 0.994032 16.741 19.993
1345 1 8.23555 0.117713 22.2218
479 1 2.80441 15.4623 17.7641
480 1 1.89922 14.1836 15.5352
481 1 4.61479 14.1836 15.5352
482 1 3.7096 12.9049 13.3063
483 1 6.42518 12.9049 13.3063
484 1 5.51999 11.6262 11.0774
485 1 8.23556 11.6262 11.0774
486 1 7.33038 10.3475 8.84855
487 1 10.0459 10.3475 8.84855
488 1 9.14075 9.06873 6.61968
489 1 11.8563 9.06872 6.61968
490 1 10.9511 7.79 4.3908
491 1 13.6667 7.79001 4.39081
492 1 12.7615 6.51128 2.16424
493 1 15.4771 6.51128 2.16427
494 1 14.5719 5.23254 0.00537184
495 1 17.2875 5.23256 0.00539293
496 1 0.994032 20.5772 22.2218
1734 1 31.7705 10.3475 22.2219
498 1 2.80441 19.2985 19.993
499 1 1.89922 18.0198 17.7641
500 1 4.61479 18.0198 17.7641
501 1 3.7096 16.741 15.5352
502 1 6.42517 16.741 15.5352
503 1 5.51999 15.4623 13.3063
504 1 8.23555 15.4623 13.3063
505 1 7.33037 14.1836 11.0774
506 1 10.0459 14.1836 11.0774
507 1 9.14075 12.9049 8.84855
508 1 11.8563 12.9049 8.84855
509 1 10.9511 11.6262 6.61967
510 1 13.6667 11.6262 6.61967
511 1 12.7615 10.3474 4.3908
512 1 15.4771 10.3475 4.39081
513 1 14.5719 9.06872 2.16423
514 1 17.2875 9.06871 2.16426
515 1 16.3823 7.78998 0.00535925
516 1 19.0979 7.78998 0.00538598
517 1 0.994032 24.4134 24.4507
1733 1 29.0549 10.3475 22.2219
519 1 2.80441 23.1346 22.2218
520 1 1.89922 21.8559 19.993
521 1 4.61479 21.8559 19.993
522 1 3.7096 20.5772 17.7641
523 1 6.42517 20.5772 17.7641
524 1 5.51998 19.2985 15.5352
525 1 8.23555 19.2985 15.5352
526 1 7.33036 18.0198 13.3063
527 1 10.0459 18.0198 13.3063
528 1 9.14075 16.741 11.0774
529 1 11.8563 16.741 11.0774
530 1 10.9511 15.4623 8.84855
531 1 13.6667 15.4623 8.84855
532 1 12.7615 14.1836 6.61967
533 1 15.4771 14.1836 6.61967
534 1 14.5719 12.9049 4.39079
535 1 17.2875 12.9049 4.39079
536 1 16.3823 11.6262 2.16422
537 1 19.0979 11.6262 2.16423
538 1 18.1927 10.3474 0.00533649
539 1 20.9082 10.3474 0.00535953
1732 1 29.9601 11.6262 24.4507
541 1 2.80441 26.9708 24.4507
542 1 1.89922 25.6921 22.2218
543 1 4.61479 25.6921 22.2218
544 1 3.7096 24.4134 19.993
545 1 6.42517 24.4134 19.993
546 1 5.51998 23.1346 17.7641
547 1 8.23555 23.1346 17.7641
548 1 7.33036 21.8559 15.5352
549 1 10.0459 21.8559 15.5352
550 1 9.14074 20.5772 13.3063
551 1 11.8563 20.5772 13.3063
552 1 10.9511 19.2985 11.0774
553 1 13.6667 19.2985 11.0774
554 1 12.7615 18.0198 8.84855
555 1 15.4771 18.0198 8.84856
556 1 14.5719 16.741 6.61967
557 1 17.2875 16.741 6.61967
558 1 16.3823 15.4623 4.39078
559 1 19.0978 15.4623 4.39079
560 1 18.1927 14.1836 2.16421
561 1 20.9082 14.1836 2.16422
562 1 20.0031 12.9049 0.00531291
563 1 22.7186 12.9049 0.00533232
564 1 1.89922 29.5282 24.4507
565 1 4.61479 29.5282 24.4507
566 1 3.7096 28.2495 22.2218
567 1 6.42517 28.2495 22.2218
568 1 5.51998 26.9708 19.993
569 1 8.23555 26.9708 19.993
570 1 7.33036 25.6921 17.7641
571 1 10.0459 25.6921 17.7641
572 1 9.14074 24.4134 15.5352
573 1 11.8563 24.4133 15.5352
574 1 10.9511 23.1346 13.3063
575 1 13.6667 23.1346 13.3063
576 1 12.7615 21.8559 11.0775
577 1 15.4771 21.8559 11.0775
578 1 14.5719 20.5772 8.84858
579 1 17.2875 20.5772 8.84858
580 1 16.3823 19.2985 6.61969
581 1 19.0978 19.2985 6.6197
582 1 18.1927 18.0198 4.39081
583 1 20.9082 18.0197 4.39082
584 1 20.003 16.741 2.16422
585 1 22.7186 16.741 2.16424
586 1 21.8134 15.4623 0.00530865
587 1 24.529 15.4623 0.00532904
588 1 7.33036 29.5282 19.993
589 1 10.0459 29.5282 19.993
590 1 9.14074 28.2495 17.7641
591 1 11.8563 28.2495 17.7641
592 1 10.9511 26.9708 15.5352
593 1 13.6667 26.9708 15.5352
594 1 12.7615 25.6921 13.3064
595 1 15.4771 25.6921 13.3064
596 1 14.5719 24.4133 11.0775
597 1 17.2875 24.4133 11.0775
598 1 16.3823 23.1346 8.8486
599 1 19.0978 23.1346 8.84861
600 1 18.1926 21.8559 6.61972
601 1 20.9082 21.8559 6.61973
602 1 20.003 20.5772 4.39084
603 1 22.7186 20.5772 4.39085
604 1 21.8134 19.2985 2.16426
605 1 24.529 19.2984 2.16427
606 1 23.6238 18.0197 0.00535097
607 1 26.3394 18.0197 0.00536646
608 1 12.7615 29.5282 15.5352
609 1 15.4771 29.5282 15.5353
610 1 14.5719 28.2495 13.3064
611 1 17.2874 28.2495 13.3064
612 1 16.3823 26.9708 11.0775
613 1 19.0978 26.9708 11.0775
614 1 18.1926 25.6921 8.84862
615 1 20.9082 25.692 8.84861
616 1 20.003 24.4133 6.61973
617 1 22.7186 24.4133 6.61973
618 1 21.8134 23.1346 4.39085
619 1 24.529 23.1346 4.39084
620 1 23.6238 21.8559 2.16428
621 1 26.3394 21.8559 2.16426
622 1 25.4342 20.5772 0.00537012
623 1 28.1497 20.5771 0.00535487
624 1 18.1926 29.5282 11.0775
625 1 20.9082 29.5282 11.0775
626 1 20.003 28.2495 8.84861
627 1 22.7186 28.2495 8.84862
628 1 21.8134 26.9707 6.61973
629 1 24.529 26.9707 6.61973
630 1 23.6238 25.692 4.39084
631 1 26.3394 25.692 4.39085
632 1 25.4342 24.4133 2.16426
633 1 28.1498 24.4133 2.16426
634 1 27.2446 23.1346 0.00534394
635 1 29.9601 23.1346 0.00534301
636 1 23.6238 29.5282 6.61973
637 1 26.3394 29.5281 6.61976
638 1 25.4342 28.2495 4.39085
639 1 28.1498 28.2495 4.39085
640 1 27.2446 26.9708 2.16427
641 1 29.9602 26.9707 2.16428
642 1 29.055 25.692 0.00537257
643 1 31.7705 25.6921 0.00537589
644 1 29.055 29.5282 2.16428
645 1 31.7705 29.5282 2.16429
646 1 30.8653 28.2495 0.00536353
647 1 0.994042 1.39643 15.5352
1753 1 30.8653 1.39643 24.4508
1752 1 30.8653 9.06873 24.4507
650 1 0.994035 5.23258 17.7641
1751 1 30.8653 5.23258 22.2219
652 1 2.80442 3.95386 15.5352
653 1 1.89923 2.67514 13.3063
654 1 4.6148 2.67514 13.3063
655 1 3.70961 1.39642 11.0774
656 1 6.42518 1.39642 11.0774
5130 1 19.0978 30.8069 17.7641
5011 1 27.2446 30.8069 4.39088
659 1 0.994035 9.06874 19.993
1731 1 27.2446 11.6262 24.4507
661 1 2.80441 7.79002 17.7641
662 1 1.89922 6.5113 15.5352
663 1 4.6148 6.5113 15.5352
664 1 3.70961 5.23257 13.3063
665 1 6.42518 5.23258 13.3063
666 1 5.51999 3.95386 11.0774
667 1 8.23556 3.95386 11.0774
668 1 7.33037 2.67513 8.84856
669 1 10.0459 2.67514 8.84858
670 1 9.14075 1.39642 6.6197
671 1 11.8563 1.39641 6.61972
1750 1 31.7705 6.51129 24.4508
4991 1 21.8134 30.8069 8.84863
674 1 0.994033 12.9049 22.2218
1749 1 29.0549 6.5113 24.4508
676 1 2.80441 11.6262 19.993
677 1 1.89922 10.3475 17.7641
678 1 4.61479 10.3475 17.7641
679 1 3.7096 9.06874 15.5352
680 1 6.42518 9.06873 15.5352
681 1 5.51999 7.79001 13.3063
682 1 8.23556 7.79001 13.3063
683 1 7.33037 6.51129 11.0774
684 1 10.0459 6.51129 11.0774
685 1 9.14076 5.23257 8.84856
686 1 11.8563 5.23257 8.84857
687 1 10.9511 3.95385 6.6197
688 1 13.6667 3.95384 6.61972
689 1 12.7615 2.67512 4.39085
690 1 15.4771 2.67513 4.39086
691 1 14.5719 1.39641 2.1643
692 1 17.2875 1.39641 2.16427
1748 1 30.8653 1.39646 19.993
4976 1 19.0978 30.8069 13.3064
695 1 0.994032 16.741 24.4507
1730 1 30.8653 5.23259 17.7641
697 1 2.80441 15.4623 22.2218
698 1 1.89922 14.1836 19.993
699 1 4.61479 14.1836 19.993
700 1 3.7096 12.9049 17.7641
701 1 6.42518 12.9049 17.7641
702 1 5.51998 11.6262 15.5352
703 1 8.23556 11.6262 15.5352
704 1 7.33037 10.3475 13.3063
705 1 10.0459 10.3475 13.3063
706 1 9.14075 9.06873 11.0774
707 1 11.8563 9.06873 11.0774
708 1 10.9511 7.79001 8.84856
709 1 13.6667 7.79001 8.84857
710 1 12.7615 6.51129 6.61969
711 1 15.4771 6.51128 6.61972
712 1 14.5719 5.23255 4.39085
713 1 17.2875 5.23257 4.39087
714 1 16.3823 3.95385 2.1643
715 1 19.0979 3.95382 2.16428
716 1 18.1927 2.67513 0.00536855
717 1 20.9082 2.67511 0.00532899
1729 1 31.7705 6.5113 19.993
719 1 2.80441 19.2985 24.4507
720 1 1.89922 18.0198 22.2218
721 1 4.61479 18.0198 22.2218
722 1 3.7096 16.741 19.993
723 1 6.42517 16.741 19.993
724 1 5.51998 15.4623 17.7641
725 1 8.23555 15.4623 17.7641
726 1 7.33037 14.1836 15.5352
727 1 10.0459 14.1836 15.5352
728 1 9.14075 12.9049 13.3063
729 1 11.8563 12.9049 13.3063
730 1 10.9511 11.6262 11.0774
731 1 13.6667 11.6262 11.0774
732 1 12.7615 10.3475 8.84856
733 1 15.4771 10.3475 8.84857
734 1 14.5719 9.06873 6.61969
735 1 17.2875 9.06872 6.6197
736 1 16.3823 7.79 4.39084
737 1 19.0978 7.79 4.39085
738 1 18.1927 6.51128 2.16429
739 1 20.9082 6.51126 2.16429
740 1 20.003 5.23255 0.00537774
741 1 22.7186 5.23256 0.00534232
742 1 1.89922 21.8559 24.4507
743 1 4.61479 21.8559 24.4507
744 1 3.7096 20.5772 22.2218
745 1 6.42517 20.5772 22.2218
746 1 5.51998 19.2985 19.993
747 1 8.23555 19.2985 19.993
748 1 7.33036 18.0198 17.7641
749 1 10.0459 18.0198 17.7641
750 1 9.14074 16.741 15.5352
751 1 11.8563 16.741 15.5352
752 1 10.9511 15.4623 13.3063
753 1 13.6667 15.4623 13.3063
754 1 12.7615 14.1836 11.0774
755 1 15.4771 14.1836 11.0774
756 1 14.5719 12.9049 8.84855
757 1 17.2875 12.9049 8.84856
758 1 16.3823 11.6262 6.61968
759 1 19.0979 11.6262 6.61969
760 1 18.1927 10.3474 4.39082
761 1 20.9082 10.3474 4.39084
762 1 20.003 9.06871 2.16428
763 1 22.7186 9.06869 2.16429
764 1 21.8134 7.78999 0.00538744
765 1 24.529 7.78998 0.00536386
766 1 3.7096 24.4134 24.4507
767 1 6.42517 24.4134 24.4507
768 1 5.51998 23.1346 22.2218
769 1 8.23555 23.1346 22.2218
770 1 7.33036 21.8559 19.993
771 1 10.0459 21.8559 19.993
772 1 9.14074 20.5772 17.7641
773 1 11.8563 20.5772 17.7641
774 1 10.9511 19.2985 15.5352
775 1 13.6667 19.2985 15.5352
776 1 12.7615 18.0198 13.3063
777 1 15.4771 18.0198 13.3063
778 1 14.5719 16.741 11.0774
779 1 17.2875 16.741 11.0774
780 1 16.3823 15.4623 8.84855
781 1 19.0978 15.4623 8.84856
782 1 18.1926 14.1836 6.61967
783 1 20.9082 14.1836 6.61969
784 1 20.003 12.9049 4.3908
785 1 22.7186 12.9049 4.39082
786 1 21.8134 11.6262 2.16426
787 1 24.529 11.6262 2.16427
788 1 23.6238 10.3474 0.00537579
789 1 26.3394 10.3474 0.00537056
790 1 5.51998 26.9708 24.4507
791 1 8.23555 26.9708 24.4507
792 1 7.33036 25.6921 22.2218
793 1 10.0459 25.6921 22.2218
794 1 9.14074 24.4134 19.993
795 1 11.8563 24.4134 19.993
796 1 10.9511 23.1346 17.7641
797 1 13.6667 23.1346 17.7641
798 1 12.7615 21.8559 15.5352
799 1 15.4771 21.8559 15.5352
800 1 14.5719 20.5772 13.3063
801 1 17.2874 20.5772 13.3063
802 1 16.3823 19.2985 11.0774
803 1 19.0978 19.2985 11.0775
804 1 18.1926 18.0198 8.84857
805 1 20.9082 18.0198 8.84858
806 1 20.003 16.741 6.61968
807 1 22.7186 16.741 6.6197
808 1 21.8134 15.4623 4.3908
809 1 24.529 15.4623 4.39083
810 1 23.6238 14.1836 2.16424
811 1 26.3394 14.1836 2.16427
812 1 25.4342 12.9049 0.00535645
813 1 28.1498 12.9049 0.00537476
814 1 7.33036 29.5282 24.4507
815 1 10.0459 29.5282 24.4507
816 1 9.14074 28.2495 22.2218
817 1 11.8563 28.2495 22.2218
818 1 10.9511 26.9708 19.993
819 1 13.6667 26.9708 19.993
820 1 12.7615 25.6921 17.7641
821 1 15.4771 25.6921 17.7641
822 1 14.5719 24.4133 15.5352
823 1 17.2874 24.4133 15.5352
824 1 16.3823 23.1346 13.3064
825 1 19.0978 23.1346 13.3064
826 1 18.1926 21.8559 11.0775
827 1 20.9082 21.8559 11.0775
828 1 20.003 20.5772 8.84859
829 1 22.7186 20.5772 8.8486
830 1 21.8134 19.2985 6.61971
831 1 24.529 19.2985 6.61972
832 1 23.6238 18.0197 4.39083
833 1 26.3394 18.0197 4.39084
834 1 25.4342 16.741 2.16426
835 1 28.1497 16.741 2.16428
836 1 27.2446 15.4623 0.00535742
837 1 29.9601 15.4623 0.00538442
838 1 10.9511 30.8069 22.2219
839 1 13.6667 30.8069 22.2219
840 1 12.7615 29.5282 19.993
841 1 15.4771 29.5282 19.993
842 1 14.5719 28.2495 17.7641
843 1 17.2874 28.2495 17.7641
844 1 16.3823 26.9708 15.5353
845 1 19.0978 26.9708 15.5353
846 1 18.1926 25.6921 13.3064
847 1 20.9082 25.692 13.3064
848 1 20.003 24.4133 11.0775
849 1 22.7186 24.4133 11.0775
850 1 21.8134 23.1346 8.84861
851 1 24.529 23.1346 8.84862
852 1 23.6238 21.8559 6.61973
853 1 26.3394 21.8559 6.61973
854 1 25.4342 20.5772 4.39085
855 1 28.1497 20.5772 4.39085
856 1 27.2446 19.2984 2.16428
857 1 29.9601 19.2984 2.16427
858 1 29.055 18.0197 0.00537598
859 1 31.7705 18.0197 0.00538657
901 1 0.0888455 7.79002 22.2218
861 1 18.1926 29.5282 15.5353
862 1 20.9082 29.5282 15.5353
863 1 20.003 28.2495 13.3064
864 1 22.7186 28.2495 13.3064
865 1 21.8134 26.9708 11.0775
866 1 24.529 26.9707 11.0775
867 1 23.6238 25.692 8.84862
868 1 26.3393 25.692 8.84861
869 1 25.4342 24.4133 6.61973
870 1 28.1497 24.4133 6.61973
871 1 27.2446 23.1346 4.39084
872 1 29.9601 23.1346 4.39084
873 1 29.0549 21.8559 2.16425
874 1 31.7705 21.8559 2.16425
875 1 30.8653 20.5772 0.00534768
876 1 23.6238 29.5281 11.0775
877 1 26.3393 29.5281 11.0775
878 1 25.4342 28.2494 8.84863
879 1 28.1497 28.2494 8.84864
880 1 27.2445 26.9707 6.61973
881 1 29.9601 26.9707 6.61974
882 1 29.0549 25.692 4.39085
883 1 31.7705 25.692 4.39085
884 1 30.8653 24.4133 2.16426
885 1 29.0549 29.5281 6.61977
886 1 31.7705 29.5281 6.61979
887 1 30.8653 28.2494 4.39086
888 1 0.994037 1.39643 19.993
1747 1 31.7705 2.67516 22.2219
915 1 0.0888429 11.6262 24.4507
891 1 0.994037 5.23258 22.2218
1746 1 29.0549 2.67516 22.2219
893 1 2.80441 3.95386 19.993
894 1 1.89923 2.67514 17.7641
895 1 4.61479 2.67515 17.7641
896 1 3.70961 1.39643 15.5352
897 1 6.42518 1.39642 15.5352
4964 1 13.6667 30.8069 17.7641
4963 1 10.9511 30.8069 17.7641
900 1 0.994034 9.06874 24.4507
1745 1 29.9601 3.95386 24.4508
902 1 2.80441 7.79002 22.2218
903 1 1.89923 6.5113 19.993
904 1 4.61479 6.5113 19.993
905 1 3.70961 5.23258 17.7641
906 1 6.42518 5.23258 17.7641
907 1 5.51999 3.95386 15.5352
908 1 8.23556 3.95386 15.5352
909 1 7.33037 2.67514 13.3063
910 1 10.0459 2.67514 13.3063
911 1 9.14075 1.39643 11.0775
912 1 11.8563 1.39642 11.0775
4956 1 8.23555 30.8069 22.2218
4955 1 5.51998 30.8069 22.2218
1744 1 27.2446 3.95386 24.4508
916 1 2.80441 11.6262 24.4507
917 1 1.89922 10.3475 22.2218
918 1 4.61479 10.3475 22.2218
919 1 3.7096 9.06874 19.993
920 1 6.42518 9.06874 19.993
921 1 5.51999 7.79002 17.7641
922 1 8.23556 7.79002 17.7641
923 1 7.33037 6.5113 15.5352
924 1 10.0459 6.51129 15.5352
925 1 9.14075 5.23258 13.3063
926 1 11.8563 5.23258 13.3063
927 1 10.9511 3.95386 11.0775
928 1 13.6667 3.95385 11.0775
929 1 12.7615 2.67513 8.84859
930 1 15.4771 2.67513 8.84861
931 1 14.5719 1.39641 6.61974
932 1 17.2875 1.3964 6.61972
1728 1 29.0549 6.5113 19.993
4796 1 21.8134 30.8069 4.39085
935 1 1.89922 14.1836 24.4507
936 1 4.61479 14.1836 24.4507
937 1 3.7096 12.9049 22.2218
938 1 6.42517 12.9049 22.2218
939 1 5.51999 11.6262 19.993
940 1 8.23555 11.6262 19.993
941 1 7.33037 10.3475 17.7641
942 1 10.0459 10.3475 17.7641
943 1 9.14075 9.06873 15.5352
944 1 11.8563 9.06873 15.5352
945 1 10.9511 7.79001 13.3063
946 1 13.6667 7.79002 13.3063
947 1 12.7615 6.5113 11.0775
948 1 15.4771 6.51129 11.0775
949 1 14.5719 5.23257 8.84859
950 1 17.2875 5.23257 8.8486
951 1 16.3823 3.95385 6.61973
952 1 19.0979 3.95384 6.61972
953 1 18.1927 2.67512 4.39084
954 1 20.9083 2.67512 4.39081
955 1 20.0031 1.39637 2.16424
956 1 22.7186 1.39638 2.16423
1131 1 0.0888473 3.95387 24.4507
4511 1 0.0888493 30.8069 17.7641
959 1 3.7096 16.741 24.4507
960 1 6.42517 16.741 24.4507
961 1 5.51998 15.4623 22.2218
962 1 8.23555 15.4623 22.2218
963 1 7.33036 14.1836 19.993
964 1 10.0459 14.1836 19.993
965 1 9.14074 12.9049 17.7641
966 1 11.8563 12.9049 17.7641
967 1 10.9511 11.6262 15.5352
968 1 13.6667 11.6262 15.5352
969 1 12.7615 10.3475 13.3063
970 1 15.4771 10.3475 13.3063
971 1 14.5719 9.06873 11.0774
972 1 17.2875 9.06873 11.0775
973 1 16.3823 7.79 8.84859
974 1 19.0978 7.79001 8.8486
975 1 18.1926 6.51128 6.61973
976 1 20.9082 6.51128 6.61973
977 1 20.0031 5.23255 4.39085
978 1 22.7186 5.23255 4.39083
979 1 21.8134 3.95382 2.16424
980 1 24.529 3.95379 2.16423
981 1 23.6239 2.67507 0.00532427
982 1 26.3394 2.67502 0.00533438
983 1 5.51998 19.2985 24.4507
984 1 8.23555 19.2985 24.4507
985 1 7.33036 18.0198 22.2218
986 1 10.0459 18.0198 22.2218
987 1 9.14074 16.741 19.993