ITEM: TIMESTEP
12
ITEM: NUMBER OF ATOMS
14401
ITEM: BOX BOUNDS pp pp pp
8.8598786254404774e-02 6.5262807480445886e+01
1.1745495684415849e-01 6.1496441751503561e+01
-2.2325914311487910e+01 7.5685114087067248e+01
ITEM: ATOMS id type x y z
1 1 0.993796 28.2495 0.00528253
7470 1 32.6757 0.117838 4.39065
3 1 0.993796 20.5771 0.00528253
4 1 0.993796 24.4133 2.16417
672 1 10.951 0.117455 4.39072
6 1 2.80419 23.1346 0.00528253
7 1 0.993796 28.2495 4.39072
459 1 13.6666 0.117455 0.00528254
9 1 2.80419 26.9708 2.16417
10 1 1.89899 25.692 0.00528253
11 1 4.61459 25.692 0.00528253
12 1 2.80419 30.8069 4.39072
13 1 1.89899 29.5282 2.16417
14 1 4.61459 29.5282 2.16417
15 1 3.70939 28.2495 0.00528253
16 1 6.42498 28.2495 0.00528253
17 1 8.23537 30.8069 0.00528253
18 1 0.993796 12.9047 0.00528253
19 1 0.993796 16.7409 2.16417
5351 1 27.2445 30.8069 22.2217
21 1 2.80419 15.4622 0.00528253
22 1 0.993796 20.5771 4.39072
7909 1 32.6757 15.4622 22.2217
24 1 2.80419 19.2984 2.16417
25 1 1.89899 18.0197 0.00528253
26 1 4.61459 18.0197 0.00528253
27 1 0.993796 24.4133 6.61957
5323 1 29.9601 30.8069 17.7639
29 1 2.80419 23.1346 4.39072
30 1 1.89899 21.8558 2.16417
31 1 4.61459 21.8558 2.16417
32 1 3.70939 20.5771 0.00528253
33 1 6.42498 20.5771 0.00528253
34 1 0.993796 28.2495 8.84843
458 1 10.951 0.117455 0.00528253
36 1 2.80419 26.9708 6.61957
37 1 1.89899 25.692 4.39072
38 1 4.61459 25.692 4.39072
39 1 3.70939 24.4133 2.16417
40 1 6.42498 24.4133 2.16417
41 1 5.51978 23.1346 0.00528253
42 1 8.23537 23.1346 0.00528253
43 1 2.80419 30.8069 8.84843
44 1 1.89899 29.5282 6.61957
45 1 4.61459 29.5282 6.61957
46 1 3.70939 28.2495 4.39072
47 1 6.42498 28.2495 4.39072
48 1 5.51978 26.9708 2.16417
49 1 8.23537 26.9708 2.16417
50 1 7.33018 25.692 0.00528253
51 1 10.0458 25.692 0.00528253
52 1 7.33018 29.5282 2.16417
53 1 10.0458 29.5282 2.16417
54 1 9.14057 28.2495 0.00528253
55 1 11.8562 28.2495 0.00528253
56 1 13.6666 30.8069 0.00528252
57 1 0.993796 5.23237 0.00528253
58 1 0.993796 9.06856 2.16417
5261 1 29.9601 30.8069 13.3062
60 1 2.80419 7.78983 0.00528253
61 1 0.993796 12.9047 4.39072
5157 1 27.2445 30.8068 8.84845
63 1 2.80419 11.626 2.16417
64 1 1.89899 10.3473 0.00528253
65 1 4.61459 10.3473 0.00528253
66 1 0.993796 16.7409 6.61957
444 1 8.23537 0.117455 4.39072
68 1 2.80419 15.4622 4.39072
69 1 1.89899 14.1835 2.16417
70 1 4.61459 14.1835 2.16417
71 1 3.70939 12.9047 0.00528253
72 1 6.42498 12.9047 0.00528253
73 1 0.993796 20.5771 8.84843
1548 1 27.2444 0.117705 8.84847
75 1 2.80419 19.2984 6.61957
76 1 1.89899 18.0197 4.39072
77 1 4.61459 18.0197 4.39072
78 1 3.70939 16.7409 2.16417
79 1 6.42498 16.7409 2.16417
80 1 5.51978 15.4622 0.00528253
81 1 8.23537 15.4622 0.00528253
82 1 0.993796 24.4133 11.0773
5141 1 21.8133 30.8069 13.3062
84 1 2.80419 23.1346 8.84843
85 1 1.89899 21.8558 6.61957
86 1 4.61459 21.8558 6.61957
87 1 3.70939 20.5771 4.39072
88 1 6.42498 20.5771 4.39072
89 1 5.51978 19.2984 2.16417
90 1 8.23537 19.2984 2.16417
91 1 7.33018 18.0197 0.00528253
92 1 10.0458 18.0197 0.00528253
93 1 0.993796 28.2495 13.3062
7538 1 32.6757 23.1346 17.7639
95 1 2.80419 26.9708 11.0773
96 1 1.89899 25.692 8.84843
97 1 4.61459 25.692 8.84843
98 1 3.70939 24.4133 6.61957
99 1 6.42498 24.4133 6.61957
100 1 5.51978 23.1346 4.39072
101 1 8.23537 23.1346 4.39072
102 1 7.33018 21.8558 2.16417
103 1 10.0458 21.8558 2.16417
104 1 9.14057 20.5771 0.00528253
105 1 11.8562 20.5771 0.00528253
2162 1 21.8133 23.1346 26.6796
107 1 1.89899 29.5282 11.0773
108 1 4.61459 29.5282 11.0773
109 1 3.70939 28.2495 8.84843
110 1 6.42498 28.2495 8.84843
111 1 5.51978 26.9708 6.61957
112 1 8.23537 26.9708 6.61957
113 1 7.33018 25.692 4.39072
114 1 10.0458 25.692 4.39072
115 1 9.14057 24.4133 2.16417
116 1 11.8562 24.4133 2.16417
117 1 10.951 23.1346 0.00528253
118 1 13.6666 23.1346 0.00528253
119 1 7.33018 29.5282 6.61957
120 1 10.0458 29.5282 6.61957
121 1 9.14057 28.2495 4.39072
122 1 11.8562 28.2495 4.39072
123 1 10.951 26.9708 2.16417
124 1 13.6666 26.9708 2.16417
125 1 12.7614 25.692 0.00528253
126 1 15.477 25.692 0.00528253
127 1 10.951 30.8069 4.39072
128 1 13.6666 30.8069 4.39072
129 1 12.7614 29.5282 2.16417
130 1 15.477 29.5282 2.16417
131 1 14.5718 28.2495 0.00528253
132 1 17.2873 28.2495 0.00528248
133 1 16.3822 30.8069 0.00528245
134 1 0.993796 1.39618 2.16417
2149 1 20.0029 20.5771 26.6796
4820 1 29.9601 30.8069 0.00523596
137 1 0.993796 5.23237 4.39072
435 1 2.80419 0.117455 8.84843
139 1 2.80419 3.95364 2.16417
140 1 1.89899 2.67491 0.00528253
141 1 4.61459 2.67491 0.00528253
142 1 0.993796 9.06856 6.61957
1532 1 21.8133 0.117463 13.3062
144 1 2.80419 7.78983 4.39072
145 1 1.89899 6.5111 2.16417
146 1 4.61459 6.5111 2.16417
147 1 3.70939 5.23237 0.00528253
148 1 6.42498 5.23237 0.00528253
149 1 0.993796 12.9047 8.84843
136 1 2.80419 0.117455 0.00528253
151 1 2.80419 11.626 6.61957
152 1 1.89899 10.3473 4.39072
153 1 4.61459 10.3473 4.39072
154 1 3.70939 9.06856 2.16417
155 1 6.42498 9.06856 2.16417
156 1 5.51978 7.78983 0.00528253
157 1 8.23537 7.78983 0.00528253
158 1 0.993796 16.7409 11.0773
8343 1 32.6757 0.117457 22.2218
160 1 2.80419 15.4622 8.84843
161 1 1.89899 14.1835 6.61957
162 1 4.61459 14.1835 6.61957
163 1 3.70939 12.9047 4.39072
164 1 6.42498 12.9047 4.39072
165 1 5.51978 11.626 2.16417
166 1 8.23537 11.626 2.16417
167 1 7.33018 10.3473 0.00528253
168 1 10.0458 10.3473 0.00528253
169 1 0.993796 20.5771 13.3062
7425 1 32.6757 30.8069 17.7639
171 1 2.80419 19.2984 11.0773
172 1 1.89899 18.0197 8.84843
173 1 4.61459 18.0197 8.84843
174 1 3.70939 16.7409 6.61957
175 1 6.42498 16.7409 6.61957
176 1 5.51978 15.4622 4.39072
177 1 8.23537 15.4622 4.39072
178 1 7.33018 14.1835 2.16417
179 1 10.0458 14.1835 2.16417
180 1 9.14057 12.9047 0.00528253
181 1 11.8562 12.9047 0.00528253
182 1 0.993796 24.4133 15.535
899 1 8.23537 0.117455 13.3062
184 1 2.80419 23.1346 13.3062
185 1 1.89899 21.8558 11.0773
186 1 4.61459 21.8558 11.0773
187 1 3.70939 20.5771 8.84843
188 1 6.42498 20.5771 8.84843
189 1 5.51978 19.2984 6.61957
190 1 8.23537 19.2984 6.61957
191 1 7.33018 18.0197 4.39072
192 1 10.0458 18.0197 4.39072
193 1 9.14057 16.7409 2.16417
194 1 11.8562 16.7409 2.16417
195 1 10.951 15.4622 0.00528253
196 1 13.6666 15.4622 0.00528253
197 1 0.993796 28.2495 17.7639
7346 1 32.6757 0.117633 0.00518852
199 1 2.80419 26.9708 15.535
200 1 1.89899 25.692 13.3062
201 1 4.61459 25.692 13.3062
202 1 3.70939 24.4133 11.0773
203 1 6.42498 24.4133 11.0773
204 1 5.51978 23.1346 8.84843
205 1 8.23537 23.1346 8.84843
206 1 7.33018 21.8558 6.61957
207 1 10.0458 21.8558 6.61957
208 1 9.14057 20.5771 4.39072
209 1 11.8562 20.5771 4.39072
210 1 10.951 19.2984 2.16417
211 1 13.6666 19.2984 2.16417
212 1 12.7614 18.0197 0.00528253
213 1 15.477 18.0197 0.00528253
214 1 2.80419 30.8069 17.7639
215 1 1.89899 29.5282 15.535
216 1 4.61459 29.5282 15.535
217 1 3.70939 28.2495 13.3062
218 1 6.42498 28.2495 13.3062
219 1 5.51978 26.9708 11.0773
220 1 8.23537 26.9708 11.0773
221 1 7.33018 25.692 8.84843
222 1 10.0458 25.692 8.84843
223 1 9.14057 24.4133 6.61957
224 1 11.8562 24.4133 6.61957
225 1 10.951 23.1346 4.39072
226 1 13.6666 23.1346 4.39072
227 1 12.7614 21.8558 2.16417
228 1 15.477 21.8558 2.16417
229 1 14.5718 20.5771 0.00528253
230 1 17.2873 20.5771 0.00528253
231 1 8.23537 30.8069 13.3062
232 1 7.33018 29.5282 11.0773
233 1 10.0458 29.5282 11.0773
234 1 9.14057 28.2495 8.84843
235 1 11.8562 28.2495 8.84843
236 1 10.951 26.9708 6.61957
237 1 13.6666 26.9708 6.61957
238 1 12.7614 25.692 4.39072
239 1 15.477 25.692 4.39072
240 1 14.5718 24.4133 2.16417
241 1 17.2873 24.4133 2.16417
242 1 16.3822 23.1346 0.00528253
243 1 19.0977 23.1346 0.00528252
244 1 10.951 30.8069 8.84843
245 1 13.6666 30.8069 8.84843
246 1 12.7614 29.5282 6.61957
247 1 15.477 29.5282 6.61957
248 1 14.5718 28.2495 4.39072
249 1 17.2873 28.2495 4.39072
250 1 16.3822 26.9708 2.16417
251 1 19.0977 26.9708 2.16417
252 1 18.1925 25.692 0.0052825
253 1 20.9081 25.692 0.00528234
254 1 19.0977 30.8069 4.39072
255 1 18.1925 29.5282 2.16417
256 1 20.9081 29.5282 2.16417
257 1 20.0029 28.2495 0.00528215
258 1 22.7185 28.2495 0.0052804
259 1 24.5289 30.8069 0.00526478
260 1 0.993796 1.39618 6.61957
913 1 10.951 0.117455 8.84843
1632 1 16.3822 0.117455 22.2217
263 1 0.993796 5.23237 8.84843
1633 1 19.0977 0.117455 22.2217
265 1 2.80419 3.95364 6.61957
266 1 1.89899 2.67491 4.39072
267 1 4.61459 2.67491 4.39072
268 1 3.70939 1.39618 2.16417
269 1 6.42498 1.39618 2.16417
5352 1 29.9601 30.8069 22.2217
11501 1 32.6757 30.8069 13.3062
272 1 0.993796 9.06856 11.0773
5315 1 24.5289 30.8069 22.2217
274 1 2.80419 7.78983 8.84843
275 1 1.89899 6.5111 6.61957
276 1 4.61459 6.5111 6.61957
277 1 3.70939 5.23237 4.39072
278 1 6.42498 5.23237 4.39072
279 1 5.51978 3.95364 2.16417
280 1 8.23537 3.95364 2.16417
281 1 7.33018 2.67491 0.00528253
282 1 10.0458 2.67491 0.00528253
283 1 0.993796 12.9047 13.3062
1380 1 21.8133 0.117469 8.84843
285 1 2.80419 11.626 11.0773
286 1 1.89899 10.3473 8.84843
287 1 4.61459 10.3473 8.84843
288 1 3.70939 9.06856 6.61957
289 1 6.42498 9.06856 6.61957
290 1 5.51978 7.78983 4.39072
291 1 8.23537 7.78983 4.39072
292 1 7.33018 6.5111 2.16417
293 1 10.0458 6.5111 2.16417
294 1 9.14057 5.23237 0.00528253
295 1 11.8562 5.23237 0.00528253
296 1 0.993796 16.7409 15.535
1185 1 21.8133 0.117469 4.39072
298 1 2.80419 15.4622 13.3062
299 1 1.89899 14.1835 11.0773
300 1 4.61459 14.1835 11.0773
301 1 3.70939 12.9047 8.84843
302 1 6.42498 12.9047 8.84843
303 1 5.51978 11.626 6.61957
304 1 8.23537 11.626 6.61957
305 1 7.33018 10.3473 4.39072
306 1 10.0458 10.3473 4.39072
307 1 9.14057 9.06856 2.16417
308 1 11.8562 9.06856 2.16417
309 1 10.951 7.78983 0.00528253
310 1 13.6666 7.78983 0.00528253
311 1 0.993796 20.5771 17.7639
7361 1 32.6757 11.626 6.61957
313 1 2.80419 19.2984 15.535
314 1 1.89899 18.0197 13.3062
315 1 4.61459 18.0197 13.3062
316 1 3.70939 16.7409 11.0773
317 1 6.42498 16.7409 11.0773
318 1 5.51978 15.4622 8.84843
319 1 8.23537 15.4622 8.84843
320 1 7.33018 14.1835 6.61957
321 1 10.0458 14.1835 6.61957
322 1 9.14057 12.9047 4.39072
323 1 11.8562 12.9047 4.39072
324 1 10.951 11.626 2.16417
325 1 13.6666 11.626 2.16417
326 1 12.7614 10.3473 0.00528253
327 1 15.477 10.3473 0.00528253
328 1 0.993796 24.4133 19.9928
7354 1 32.6757 7.78983 4.39072
330 1 2.80419 23.1346 17.7639
331 1 1.89899 21.8558 15.535
332 1 4.61459 21.8558 15.535
333 1 3.70939 20.5771 13.3062
334 1 6.42498 20.5771 13.3062
335 1 5.51978 19.2984 11.0773
336 1 8.23537 19.2984 11.0773
337 1 7.33018 18.0197 8.84843
338 1 10.0458 18.0197 8.84843
339 1 9.14057 16.7409 6.61957
340 1 11.8562 16.7409 6.61957
341 1 10.951 15.4622 4.39072
342 1 13.6666 15.4622 4.39072
343 1 12.7614 14.1835 2.16417
344 1 15.477 14.1835 2.16417
345 1 14.5718 12.9047 0.00528253
346 1 17.2873 12.9047 0.00528253
347 1 0.993796 28.2495 22.2217
958 1 24.5289 0.117503 0.00525431
349 1 2.80419 26.9708 19.9928
350 1 1.89899 25.692 17.7639
351 1 4.61459 25.692 17.7639
352 1 3.70939 24.4133 15.535
353 1 6.42498 24.4133 15.535
354 1 5.51978 23.1346 13.3062
355 1 8.23537 23.1346 13.3062
356 1 7.33018 21.8558 11.0773
357 1 10.0458 21.8558 11.0773
358 1 9.14057 20.5771 8.84843
359 1 11.8562 20.5771 8.84843
360 1 10.951 19.2984 6.61957
361 1 13.6666 19.2984 6.61957
362 1 12.7614 18.0197 4.39072
363 1 15.477 18.0197 4.39072
364 1 14.5718 16.7409 2.16417
365 1 17.2873 16.7409 2.16417
366 1 16.3822 15.4622 0.00528253
367 1 19.0977 15.4622 0.00528253
368 1 2.80419 30.8069 22.2217
369 1 1.89899 29.5282 19.9928
370 1 4.61459 29.5282 19.9928
371 1 3.70939 28.2495 17.7639
372 1 6.42498 28.2495 17.7639
373 1 5.51978 26.9708 15.535
374 1 8.23537 26.9708 15.535
375 1 7.33018 25.692 13.3062
376 1 10.0458 25.692 13.3062
377 1 9.14057 24.4133 11.0773
378 1 11.8562 24.4133 11.0773
379 1 10.951 23.1346 8.84843
380 1 13.6666 23.1346 8.84843
381 1 12.7614 21.8558 6.61957
382 1 15.477 21.8558 6.61957
383 1 14.5718 20.5771 4.39072
384 1 17.2873 20.5771 4.39072
385 1 16.3822 19.2984 2.16417
386 1 19.0977 19.2984 2.16417
387 1 18.1925 18.0197 0.00528253
388 1 20.9081 18.0197 0.00528253
389 1 8.23537 30.8069 17.7639
390 1 7.33018 29.5282 15.535
391 1 10.0458 29.5282 15.535
392 1 9.14057 28.2495 13.3062
393 1 11.8562 28.2495 13.3062
394 1 10.951 26.9708 11.0773
395 1 13.6666 26.9708 11.0773
396 1 12.7614 25.692 8.84843
397 1 15.477 25.692 8.84843
398 1 14.5718 24.4133 6.61957
399 1 17.2873 24.4133 6.61957
400 1 16.3822 23.1346 4.39072
401 1 19.0977 23.1346 4.39072
402 1 18.1925 21.8558 2.16417
403 1 20.9081 21.8558 2.16417
404 1 20.0029 20.5771 0.00528253
405 1 22.7185 20.5771 0.00528253
406 1 13.6666 30.8069 13.3062
407 1 12.7614 29.5282 11.0773
408 1 15.477 29.5282 11.0773
409 1 14.5718 28.2495 8.84843
410 1 17.2873 28.2495 8.84843
411 1 16.3822 26.9708 6.61957
412 1 19.0977 26.9708 6.61957
413 1 18.1925 25.692 4.39072
414 1 20.9081 25.692 4.39072
415 1 20.0029 24.4133 2.16417
416 1 22.7185 24.4133 2.16417
417 1 21.8133 23.1346 0.00528251
418 1 24.5289 23.1346 0.0052825
419 1 19.0977 30.8069 8.84843
420 1 18.1925 29.5282 6.61957
421 1 20.9081 29.5282 6.61957
422 1 20.0029 28.2495 4.39072
423 1 22.7185 28.2495 4.39072
424 1 21.8133 26.9708 2.16417
425 1 24.5289 26.9708 2.16417
426 1 23.6237 25.692 0.0052822
427 1 26.3393 25.692 0.00528204
428 1 24.5289 30.8069 4.39071
429 1 23.6237 29.5282 2.16417
430 1 26.3393 29.5282 2.16416
431 1 25.4341 28.2495 0.00527858
432 1 28.1497 28.2495 0.00527667
433 1 0.993796 1.39618 11.0773
8101 1 32.6757 0.117472 17.7639
5314 1 21.8133 30.8069 22.2217
436 1 0.993796 5.23237 13.3062
7349 1 32.6757 3.95366 2.16417
438 1 2.80419 3.95364 11.0773
439 1 1.89899 2.67491 8.84843
440 1 4.61459 2.67491 8.84843
441 1 3.70939 1.39618 6.61957
442 1 6.42498 1.39618 6.61957
1641 1 24.5289 0.117461 17.7639
5249 1 21.8133 30.8069 17.7639
445 1 0.993796 9.06856 15.535
7473 1 32.6757 3.95373 6.61957
447 1 2.80419 7.78983 13.3062
448 1 1.89899 6.5111 11.0773
449 1 4.61459 6.5111 11.0773
450 1 3.70939 5.23237 8.84843
451 1 6.42498 5.23237 8.84843
452 1 5.51978 3.95364 6.61957
453 1 8.23537 3.95364 6.61957
454 1 7.33018 2.67491 4.39072
455 1 10.0458 2.67491 4.39072
456 1 9.14057 1.39618 2.16417
457 1 11.8562 1.39618 2.16417
5242 1 16.3822 30.8069 22.2217
1640 1 21.8133 0.117457 17.7639
460 1 0.993796 12.9047 17.7639
7307 1 32.6757 26.9707 11.0773
462 1 2.80419 11.626 15.535
463 1 1.89899 10.3473 13.3062
464 1 4.61459 10.3473 13.3062
465 1 3.70939 9.06856 11.0773
466 1 6.42498 9.06856 11.0773
467 1 5.51978 7.78983 8.84843
468 1 8.23537 7.78983 8.84843
469 1 7.33018 6.5111 6.61957
470 1 10.0458 6.5111 6.61957
471 1 9.14057 5.23237 4.39072
472 1 11.8562 5.23237 4.39072
473 1 10.951 3.95364 2.16417
474 1 13.6666 3.95364 2.16417
475 1 12.7614 2.67491 0.00528253
476 1 15.477 2.67491 0.00528253
477 1 0.993796 16.7409 19.9928
7296 1 32.6757 23.1346 8.84843
479 1 2.80419 15.4622 17.7639
480 1 1.89899 14.1835 15.535
481 1 4.61459 14.1835 15.535
482 1 3.70939 12.9047 13.3062
483 1 6.42498 12.9047 13.3062
484 1 5.51978 11.626 11.0773
485 1 8.23537 11.626 11.0773
486 1 7.33018 10.3473 8.84843
487 1 10.0458 10.3473 8.84843
488 1 9.14057 9.06856 6.61957
489 1 11.8562 9.06856 6.61957
490 1 10.951 7.78983 4.39072
491 1 13.6666 7.78983 4.39072
492 1 12.7614 6.5111 2.16417
493 1 15.477 6.5111 2.16417
494 1 14.5718 5.23237 0.00528253
495 1 17.2873 5.23237 0.00528253
496 1 0.993796 20.5771 22.2217
934 1 19.0977 0.117456 4.39072
498 1 2.80419 19.2984 19.9928
499 1 1.89899 18.0197 17.7639
500 1 4.61459 18.0197 17.7639
501 1 3.70939 16.7409 15.535
502 1 6.42498 16.7409 15.535
503 1 5.51978 15.4622 13.3062
504 1 8.23537 15.4622 13.3062
505 1 7.33018 14.1835 11.0773
506 1 10.0458 14.1835 11.0773
507 1 9.14057 12.9047 8.84843
508 1 11.8562 12.9047 8.84843
509 1 10.951 11.626 6.61957
510 1 13.6666 11.626 6.61957
511 1 12.7614 10.3473 4.39072
512 1 15.477 10.3473 4.39072
513 1 14.5718 9.06856 2.16417
514 1 17.2873 9.06856 2.16417
515 1 16.3822 7.78983 0.00528253
516 1 19.0977 7.78983 0.00528253
517 1 0.993796 24.4133 24.4507
957 1 21.8133 0.11746 0.0052766
519 1 2.80419 23.1346 22.2217
520 1 1.89899 21.8558 19.9928
521 1 4.61459 21.8558 19.9928
522 1 3.70939 20.5771 17.7639
523 1 6.42498 20.5771 17.7639
524 1 5.51978 19.2984 15.535
525 1 8.23537 19.2984 15.535
526 1 7.33018 18.0197 13.3062
527 1 10.0458 18.0197 13.3062
528 1 9.14057 16.7409 11.0773
529 1 11.8562 16.7409 11.0773
530 1 10.951 15.4622 8.84843
531 1 13.6666 15.4622 8.84843
532 1 12.7614 14.1835 6.61957
533 1 15.477 14.1835 6.61957
534 1 14.5718 12.9047 4.39072
535 1 17.2873 12.9047 4.39072
536 1 16.3822 11.626 2.16417
537 1 19.0977 11.626 2.16417
538 1 18.1925 10.3473 0.00528253
539 1 20.9081 10.3473 0.00528253
7287 1 32.6757 19.2984 6.61957
541 1 2.80419 26.9708 24.4507
542 1 1.89899 25.692 22.2217
543 1 4.61459 25.692 22.2217
544 1 3.70939 24.4133 19.9928
545 1 6.42498 24.4133 19.9928
546 1 5.51978 23.1346 17.7639
547 1 8.23537 23.1346 17.7639
548 1 7.33018 21.8558 15.535
549 1 10.0458 21.8558 15.535
550 1 9.14057 20.5771 13.3062
551 1 11.8562 20.5771 13.3062
552 1 10.951 19.2984 11.0773
553 1 13.6666 19.2984 11.0773
554 1 12.7614 18.0197 8.84843
555 1 15.477 18.0197 8.84843
556 1 14.5718 16.7409 6.61957
557 1 17.2873 16.7409 6.61957
558 1 16.3822 15.4622 4.39072
559 1 19.0977 15.4622 4.39072
560 1 18.1925 14.1835 2.16417
561 1 20.9081 14.1835 2.16417
562 1 20.0029 12.9047 0.00528253
563 1 22.7185 12.9047 0.00528253
564 1 1.89899 29.5282 24.4507
565 1 4.61459 29.5282 24.4507
566 1 3.70939 28.2495 22.2217
567 1 6.42498 28.2495 22.2217
568 1 5.51978 26.9708 19.9928
569 1 8.23537 26.9708 19.9928
570 1 7.33018 25.692 17.7639
571 1 10.0458 25.692 17.7639
572 1 9.14057 24.4133 15.535
573 1 11.8562 24.4133 15.535
574 1 10.951 23.1346 13.3062
575 1 13.6666 23.1346 13.3062
576 1 12.7614 21.8558 11.0773
577 1 15.477 21.8558 11.0773
578 1 14.5718 20.5771 8.84843
579 1 17.2873 20.5771 8.84843
580 1 16.3822 19.2984 6.61957
581 1 19.0977 19.2984 6.61957
582 1 18.1925 18.0197 4.39072
583 1 20.9081 18.0197 4.39072
584 1 20.0029 16.7409 2.16417
585 1 22.7185 16.7409 2.16417
586 1 21.8133 15.4622 0.00528253
587 1 24.5289 15.4622 0.00528253
588 1 7.33018 29.5282 19.9928
589 1 10.0458 29.5282 19.9928
590 1 9.14057 28.2495 17.7639
591 1 11.8562 28.2495 17.7639
592 1 10.951 26.9708 15.535
593 1 13.6666 26.9708 15.535
594 1 12.7614 25.692 13.3062
595 1 15.477 25.692 13.3062
596 1 14.5718 24.4133 11.0773
597 1 17.2873 24.4133 11.0773
598 1 16.3822 23.1346 8.84843
599 1 19.0977 23.1346 8.84843
600 1 18.1925 21.8558 6.61957
601 1 20.9081 21.8558 6.61957
602 1 20.0029 20.5771 4.39072
603 1 22.7185 20.5771 4.39072
604 1 21.8133 19.2984 2.16417
605 1 24.5289 19.2984 2.16417
606 1 23.6237 18.0197 0.00528253
607 1 26.3393 18.0197 0.00528253
608 1 12.7614 29.5282 15.535
609 1 15.477 29.5282 15.535
610 1 14.5718 28.2495 13.3062
611 1 17.2873 28.2495 13.3062
612 1 16.3822 26.9708 11.0773
613 1 19.0977 26.9708 11.0773
614 1 18.1925 25.692 8.84843
615 1 20.9081 25.692 8.84843
616 1 20.0029 24.4133 6.61957
617 1 22.7185 24.4133 6.61957
618 1 21.8133 23.1346 4.39072
619 1 24.5289 23.1346 4.39072
620 1 23.6237 21.8558 2.16417
621 1 26.3393 21.8558 2.16417
622 1 25.4341 20.5771 0.00528253
623 1 28.1497 20.5771 0.00528253
624 1 18.1925 29.5282 11.0773
625 1 20.9081 29.5282 11.0773
626 1 20.0029 28.2495 8.84843
627 1 22.7185 28.2495 8.84843
628 1 21.8133 26.9708 6.61957
629 1 24.5289 26.9708 6.61957
630 1 23.6237 25.692 4.39072
631 1 26.3393 25.692 4.39072
632 1 25.4341 24.4133 2.16417
633 1 28.1497 24.4133 2.16417
634 1 27.2445 23.1346 0.00528249
635 1 29.9601 23.1346 0.0052825
636 1 23.6237 29.5282 6.61957
637 1 26.3393 29.5282 6.61957
638 1 25.4341 28.2495 4.39072
639 1 28.1497 28.2495 4.39072
640 1 27.2445 26.9708 2.16417
641 1 29.9601 26.9708 2.16417
642 1 29.0549 25.692 0.0052819
643 1 31.7705 25.692 0.00528188
644 1 29.0549 29.5282 2.16415
645 1 31.7705 29.5282 2.16415
646 1 30.8653 28.2495 0.00527497
647 1 0.993796 1.39618 15.535
1137 1 5.51978 0.117455 17.7639
5142 1 24.5289 30.8069 13.3062
650 1 0.993796 5.23237 17.7639
1138 1 8.23537 0.117455 17.7639
652 1 2.80419 3.95364 15.535
653 1 1.89899 2.67491 13.3062
654 1 4.61459 2.67491 13.3062
655 1 3.70939 1.39618 11.0773
656 1 6.42498 1.39618 11.0773
5130 1 19.0977 30.8069 17.7639
1149 1 10.951 0.117455 13.3062
659 1 0.993796 9.06856 19.9928
1166 1 19.0977 0.117456 8.84843
661 1 2.80419 7.78983 17.7639
662 1 1.89899 6.5111 15.535
663 1 4.61459 6.5111 15.535
664 1 3.70939 5.23237 13.3062
665 1 6.42498 5.23237 13.3062
666 1 5.51978 3.95364 11.0773
667 1 8.23537 3.95364 11.0773
668 1 7.33018 2.67491 8.84843
669 1 10.0458 2.67491 8.84843
670 1 9.14057 1.39618 6.61957
671 1 11.8562 1.39618 6.61957
4992 1 24.5289 30.8069 8.84844
4991 1 21.8133 30.8069 8.84843
674 1 0.993796 12.9047 22.2217
1186 1 24.5289 0.117533 4.39071
676 1 2.80419 11.626 19.9928
677 1 1.89899 10.3473 17.7639
678 1 4.61459 10.3473 17.7639
679 1 3.70939 9.06856 15.535
680 1 6.42498 9.06856 15.535
681 1 5.51978 7.78983 13.3062
682 1 8.23537 7.78983 13.3062
683 1 7.33018 6.5111 11.0773
684 1 10.0458 6.5111 11.0773
685 1 9.14057 5.23237 8.84843
686 1 11.8562 5.23237 8.84843
687 1 10.951 3.95364 6.61957
688 1 13.6666 3.95364 6.61957
689 1 12.7614 2.67491 4.39072
690 1 15.477 2.67491 4.39072
691 1 14.5718 1.39618 2.16417
692 1 17.2873 1.39618 2.16417
1209 1 27.2445 0.117549 0.00522737
4976 1 19.0977 30.8069 13.3062
695 1 0.993796 16.7409 24.4507
7275 1 32.6757 11.626 2.16417
697 1 2.80419 15.4622 22.2217
698 1 1.89899 14.1835 19.9928
699 1 4.61459 14.1835 19.9928
700 1 3.70939 12.9047 17.7639
701 1 6.42498 12.9047 17.7639
702 1 5.51978 11.626 15.535
703 1 8.23537 11.626 15.535
704 1 7.33018 10.3473 13.3062
705 1 10.0458 10.3473 13.3062
706 1 9.14057 9.06856 11.0773
707 1 11.8562 9.06856 11.0773
708 1 10.951 7.78983 8.84843
709 1 13.6666 7.78983 8.84843
710 1 12.7614 6.5111 6.61957
711 1 15.477 6.5111 6.61957
712 1 14.5718 5.23237 4.39072
713 1 17.2873 5.23237 4.39072
714 1 16.3822 3.95364 2.16417
715 1 19.0977 3.95364 2.16417
716 1 18.1925 2.67491 0.00528252
717 1 20.9081 2.67491 0.00528201
1400 1 27.2444 0.11771 4.39068
719 1 2.80419 19.2984 24.4507
720 1 1.89899 18.0197 22.2217
721 1 4.61459 18.0197 22.2217
722 1 3.70939 16.7409 19.9928
723 1 6.42498 16.7409 19.9928
724 1 5.51978 15.4622 17.7639
725 1 8.23537 15.4622 17.7639
726 1 7.33018 14.1835 15.535
727 1 10.0458 14.1835 15.535
728 1 9.14057 12.9047 13.3062
729 1 11.8562 12.9047 13.3062
730 1 10.951 11.626 11.0773
731 1 13.6666 11.626 11.0773
732 1 12.7614 10.3473 8.84843
733 1 15.477 10.3473 8.84843
734 1 14.5718 9.06856 6.61957
735 1 17.2873 9.06856 6.61957
736 1 16.3822 7.78983 4.39072
737 1 19.0977 7.78983 4.39072
738 1 18.1925 6.5111 2.16417
739 1 20.9081 6.5111 2.16417
740 1 20.0029 5.23237 0.00528251
741 1 22.7185 5.23237 0.00528201
742 1 1.89899 21.8558 24.4507
743 1 4.61459 21.8558 24.4507
744 1 3.70939 20.5771 22.2217
745 1 6.42498 20.5771 22.2217
746 1 5.51978 19.2984 19.9928
747 1 8.23537 19.2984 19.9928
748 1 7.33018 18.0197 17.7639
749 1 10.0458 18.0197 17.7639
750 1 9.14057 16.7409 15.535
751 1 11.8562 16.7409 15.535
752 1 10.951 15.4622 13.3062
753 1 13.6666 15.4622 13.3062
754 1 12.7614 14.1835 11.0773
755 1 15.477 14.1835 11.0773
756 1 14.5718 12.9047 8.84843
757 1 17.2873 12.9047 8.84843
758 1 16.3822 11.626 6.61957
759 1 19.0977 11.626 6.61957
760 1 18.1925 10.3473 4.39072
761 1 20.9081 10.3473 4.39072
762 1 20.0029 9.06856 2.16417
763 1 22.7185 9.06856 2.16417
764 1 21.8133 7.78983 0.00528248
765 1 24.5289 7.78983 0.00528248
766 1 3.70939 24.4133 24.4507
767 1 6.42498 24.4133 24.4507
768 1 5.51978 23.1346 22.2217
769 1 8.23537 23.1346 22.2217
770 1 7.33018 21.8558 19.9928
771 1 10.0458 21.8558 19.9928
772 1 9.14057 20.5771 17.7639
773 1 11.8562 20.5771 17.7639
774 1 10.951 19.2984 15.535
775 1 13.6666 19.2984 15.535
776 1 12.7614 18.0197 13.3062
777 1 15.477 18.0197 13.3062
778 1 14.5718 16.7409 11.0773
779 1 17.2873 16.7409 11.0773
780 1 16.3822 15.4622 8.84843
781 1 19.0977 15.4622 8.84843
782 1 18.1925 14.1835 6.61957
783 1 20.9081 14.1835 6.61957
784 1 20.0029 12.9047 4.39072
785 1 22.7185 12.9047 4.39072
786 1 21.8133 11.626 2.16417
787 1 24.5289 11.626 2.16417
788 1 23.6237 10.3473 0.00528253
789 1 26.3393 10.3473 0.00528253
790 1 5.51978 26.9708 24.4507
791 1 8.23537 26.9708 24.4507
792 1 7.33018 25.692 22.2217
793 1 10.0458 25.692 22.2217
794 1 9.14057 24.4133 19.9928
795 1 11.8562 24.4133 19.9928
796 1 10.951 23.1346 17.7639
797 1 13.6666 23.1346 17.7639
798 1 12.7614 21.8558 15.535
799 1 15.477 21.8558 15.535
800 1 14.5718 20.5771 13.3062
801 1 17.2873 20.5771 13.3062
802 1 16.3822 19.2984 11.0773
803 1 19.0977 19.2984 11.0773
804 1 18.1925 18.0197 8.84843
805 1 20.9081 18.0197 8.84843
806 1 20.0029 16.7409 6.61957
807 1 22.7185 16.7409 6.61957
808 1 21.8133 15.4622 4.39072
809 1 24.5289 15.4622 4.39072
810 1 23.6237 14.1835 2.16417
811 1 26.3393 14.1835 2.16417
812 1 25.4341 12.9047 0.00528253
813 1 28.1497 12.9047 0.00528253
814 1 7.33018 29.5282 24.4507
815 1 10.0458 29.5282 24.4507
816 1 9.14057 28.2495 22.2217
817 1 11.8562 28.2495 22.2217
818 1 10.951 26.9708 19.9928
819 1 13.6666 26.9708 19.9928
820 1 12.7614 25.692 17.7639
821 1 15.477 25.692 17.7639
822 1 14.5718 24.4133 15.535
823 1 17.2873 24.4133 15.535
824 1 16.3822 23.1346 13.3062
825 1 19.0977 23.1346 13.3062
826 1 18.1925 21.8558 11.0773
827 1 20.9081 21.8558 11.0773
828 1 20.0029 20.5771 8.84843
829 1 22.7185 20.5771 8.84843
830 1 21.8133 19.2984 6.61957
831 1 24.5289 19.2984 6.61957
832 1 23.6237 18.0197 4.39072
833 1 26.3393 18.0197 4.39072
834 1 25.4341 16.7409 2.16417
835 1 28.1497 16.7409 2.16417
836 1 27.2445 15.4622 0.00528253
837 1 29.9601 15.4622 0.00528253
838 1 10.951 30.8069 22.2217
839 1 13.6666 30.8069 22.2217
840 1 12.7614 29.5282 19.9928
841 1 15.477 29.5282 19.9928
842 1 14.5718 28.2495 17.7639
843 1 17.2873 28.2495 17.7639
844 1 16.3822 26.9708 15.535
845 1 19.0977 26.9708 15.535
846 1 18.1925 25.692 13.3062
847 1 20.9081 25.692 13.3062
848 1 20.0029 24.4133 11.0773
849 1 22.7185 24.4133 11.0773
850 1 21.8133 23.1346 8.84843
851 1 24.5289 23.1346 8.84843
852 1 23.6237 21.8558 6.61957
853 1 26.3393 21.8558 6.61957
854 1 25.4341 20.5771 4.39072
855 1 28.1497 20.5771 4.39072
856 1 27.2445 19.2984 2.16417
857 1 29.9601 19.2984 2.16417
858 1 29.0549 18.0197 0.00528253
859 1 31.7705 18.0197 0.00528253
860 1 16.3822 30.8069 17.7639
861 1 18.1925 29.5282 15.535
862 1 20.9081 29.5282 15.535
863 1 20.0029 28.2495 13.3062
864 1 22.7185 28.2495 13.3062
865 1 21.8133 26.9708 11.0773
866 1 24.5289 26.9708 11.0773
867 1 23.6237 25.692 8.84843
868 1 26.3393 25.692 8.84843
869 1 25.4341 24.4133 6.61957
870 1 28.1497 24.4133 6.61957
871 1 27.2445 23.1346 4.39072
872 1 29.9601 23.1346 4.39072
873 1 29.0549 21.8558 2.16417
874 1 31.7705 21.8558 2.16417
875 1 30.8653 20.5771 0.00528253
876 1 23.6237 29.5282 11.0773
877 1 26.3393 29.5282 11.0773
878 1 25.4341 28.2495 8.84843
879 1 28.1497 28.2495 8.84843
880 1 27.2445 26.9707 6.61957
881 1 29.9601 26.9707 6.61957
882 1 29.0549 25.692 4.39072
883 1 31.7705 25.692 4.39072
884 1 30.8653 24.4133 2.16417
885 1 29.0549 29.5281 6.61957
886 1 31.7705 29.5281 6.61957
887 1 30.8653 28.2494 4.39071
888 1 0.993796 1.39618 19.9928
1365 1 19.0977 0.117456 13.3062
4975 1 16.3822 30.8069 13.3062
891 1 0.993796 5.23237 22.2217
7224 1 32.6757 30.8067 4.39068
893 1 2.80419 3.95364 19.9928
894 1 1.89899 2.67491 17.7639
895 1 4.61459 2.67491 17.7639
896 1 3.70939 1.39618 15.535
897 1 6.42498 1.39618 15.535
4964 1 13.6666 30.8069 17.7639
4963 1 10.951 30.8069 17.7639
900 1 0.993796 9.06856 24.4507
7248 1 32.6757 26.9707 6.61957
902 1 2.80419 7.78983 22.2217
903 1 1.89899 6.5111 19.9928
904 1 4.61459 6.5111 19.9928
905 1 3.70939 5.23237 17.7639
906 1 6.42498 5.23237 17.7639
907 1 5.51978 3.95364 15.535
908 1 8.23537 3.95364 15.535
909 1 7.33018 2.67491 13.3062
910 1 10.0458 2.67491 13.3062
911 1 9.14057 1.39618 11.0773
912 1 11.8562 1.39618 11.0773
4956 1 8.23537 30.8069 22.2217
4955 1 5.51978 30.8069 22.2217
1714 1 29.9601 0.11747 17.7639
916 1 2.80419 11.626 24.4507
917 1 1.89899 10.3473 22.2217
918 1 4.61459 10.3473 22.2217
919 1 3.70939 9.06856 19.9928
920 1 6.42498 9.06856 19.9928
921 1 5.51978 7.78983 17.7639
922 1 8.23537 7.78983 17.7639
923 1 7.33018 6.5111 15.535
924 1 10.0458 6.5111 15.535
925 1 9.14057 5.23237 13.3062
926 1 11.8562 5.23237 13.3062
927 1 10.951 3.95364 11.0773
928 1 13.6666 3.95364 11.0773
929 1 12.7614 2.67491 8.84843
930 1 15.477 2.67491 8.84843
931 1 14.5718 1.39618 6.61957
932 1 17.2873 1.39618 6.61957
1513 1 13.6666 0.117455 22.2217
4796 1 21.8133 30.8069 4.39072
935 1 1.89899 14.1835 24.4507
936 1 4.61459 14.1835 24.4507
937 1 3.70939 12.9047 22.2217
938 1 6.42498 12.9047 22.2217
939 1 5.51978 11.626 19.9928
940 1 8.23537 11.626 19.9928
941 1 7.33018 10.3473 17.7639
942 1 10.0458 10.3473 17.7639
943 1 9.14057 9.06856 15.535
944 1 11.8562 9.06856 15.535
945 1 10.951 7.78983 13.3062
946 1 13.6666 7.78983 13.3062
947 1 12.7614 6.5111 11.0773
948 1 15.477 6.5111 11.0773
949 1 14.5718 5.23237 8.84843
950 1 17.2873 5.23237 8.84843
951 1 16.3822 3.95364 6.61957
952 1 19.0977 3.95364 6.61957
953 1 18.1925 2.67491 4.39072
954 1 20.9081 2.67491 4.39072
955 1 20.0029 1.39618 2.16417
956 1 22.7185 1.39619 2.16417
4777 1 16.3822 30.8069 8.84843
4762 1 10.951 30.8069 13.3062
959 1 3.70939 16.7409 24.4507
960 1 6.42498 16.7409 24.4507
961 1 5.51978 15.4622 22.2217
962 1 8.23537 15.4622 22.2217
963 1 7.33018 14.1835 19.9928
964 1 10.0458 14.1835 19.9928
965 1 9.14057 12.9047 17.7639
966 1 11.8562 12.9047 17.7639
967 1 10.951 11.626 15.535
968 1 13.6666 11.626 15.535
969 1 12.7614 10.3473 13.3062
970 1 15.477 10.3473 13.3062
971 1 14.5718 9.06856 11.0773
972 1 17.2873 9.06856 11.0773
973 1 16.3822 7.78983 8.84843
974 1 19.0977 7.78983 8.84843
975 1 18.1925 6.5111 6.61957
976 1 20.9081 6.5111 6.61957
977 1 20.0029 5.23237 4.39072
978 1 22.7185 5.23237 4.39072
979 1 21.8133 3.95364 2.16417
980 1 24.5289 3.95365 2.16417
981 1 23.6237 2.67492 0.00527807
982 1 26.3393 2.67493 0.00527438
983 1 5.51978 19.2984 24.4507
984 1 8.23537 19.2984 24.4507
985 1 7.33018 18.0197 22.2217