ITEM: TIMESTEP
29
ITEM: NUMBER OF ATOMS
4969
ITEM: BOX BOUNDS pp pp pp
7.1096815187733559e-02 4.8942457879391561e+01
6.3368917034825903e-02 3.0743579432004505e+01
-2.2328442875850055e+01 7.1241042670131549e+01
ITEM: ATOMS id type x y z
1 1 0.976027 28.1869 0.00493351
2 1 0.975995 20.5169 0.00489176
3 1 0.976017 24.3519 2.16418
711 1 14.5518 5.17602 8.84888
5 1 2.78605 23.0736 0.00485006
6 1 0.975979 28.1869 4.3912
693 1 15.4568 2.61969 8.84928
8 1 2.78608 26.9086 2.16414
9 1 1.88105 25.6303 0.00490438
10 1 4.59612 25.6303 0.00480759
11 1 1.88105 29.4652 2.16417
12 1 4.59614 29.4652 2.16408
13 1 3.69111 28.1869 0.004854
14 1 6.4062 28.1869 0.00476304
15 1 0.975973 12.8468 0.00482595
16 1 0.975987 16.6819 2.1641
692 1 12.7415 2.6196 8.84922
18 1 2.78603 15.4035 0.00476675
19 1 0.975943 20.5169 4.39114
676 1 13.6465 0.0634305 8.84937
21 1 2.78605 19.2385 2.16405
22 1 1.88101 17.9602 0.00483135
23 1 4.59608 17.9602 0.0047008
24 1 0.975872 24.352 6.62053
675 1 10.9312 0.0633909 8.84942
26 1 2.78599 23.0736 4.39109
27 1 1.88103 21.7952 2.16412
28 1 4.5961 21.7953 2.16399
29 1 3.69106 20.5169 0.00477853
30 1 6.40614 20.5169 0.00463646
604 1 14.552 12.8469 8.84863
32 1 2.78591 26.9087 6.62046
33 1 1.88099 25.6303 4.39116
34 1 4.59604 25.6303 4.39103
35 1 3.69109 24.3519 2.16408
36 1 6.40617 24.352 2.16394
37 1 5.50113 23.0736 0.0047295
38 1 8.21621 23.0736 0.00459082
39 1 1.88091 29.4652 6.62051
40 1 4.59597 29.4653 6.62039
41 1 3.69105 28.1869 4.39111
42 1 6.40613 28.187 4.39099
43 1 5.50116 26.9086 2.16403
44 1 8.21625 26.9087 2.16392
45 1 7.31121 25.6303 0.0046939
46 1 10.0263 25.6303 0.00457775
47 1 7.31124 29.4653 2.16399
48 1 10.0263 29.4653 2.16391
49 1 9.1213 28.187 0.00467611
50 1 11.8364 28.187 0.00460824
51 1 0.975993 5.17667 0.00486619
52 1 0.975975 9.01172 2.16406
586 1 15.4571 10.2901 8.84913
54 1 2.78603 7.73335 0.00473789
55 1 0.975877 12.8468 4.39101
585 1 12.7419 10.2901 8.8485
57 1 2.78602 11.5684 2.16395
58 1 1.881 10.2901 0.0047751
59 1 4.5961 10.2901 0.00465229
60 1 0.975777 16.682 6.62035
569 1 13.6469 7.73256 8.84811
62 1 2.78594 15.4036 4.39093
63 1 1.881 14.1251 2.16402
64 1 4.5961 14.1251 2.16388
65 1 3.69106 12.8468 0.00470456
66 1 6.40617 12.8468 0.00458212
568 1 10.931 7.73191 8.84687
68 1 2.78586 19.2387 6.62033
69 1 1.88095 17.9602 4.39105
70 1 4.59603 17.9603 4.39089
71 1 3.69107 16.6819 2.16397
72 1 6.40617 16.6819 2.16381
73 1 5.50112 15.4035 0.00463106
74 1 8.21622 15.4035 0.00449478
75 1 1.88086 21.7953 6.62045
76 1 4.59587 21.7954 6.62024
77 1 3.691 20.5169 4.391
78 1 6.40606 20.517 4.39079
79 1 5.50113 19.2386 2.1639
80 1 8.21621 19.2386 2.16372
81 1 7.31117 17.9602 0.00455003
82 1 10.0263 17.9602 0.00440613
83 1 3.69089 24.352 6.62037
84 1 6.40591 24.3522 6.62013
85 1 5.50104 23.0737 4.39092
86 1 8.21611 23.0737 4.39069
87 1 7.31118 21.7953 2.16383
88 1 10.0263 21.7953 2.16365
89 1 9.12123 20.5169 0.00448348
90 1 11.8364 20.5169 0.00434648
91 1 5.50096 26.9087 6.6203
92 1 8.21606 26.9089 6.62012
93 1 7.31112 25.6304 4.39087
94 1 10.0262 25.6305 4.39069
95 1 9.12126 24.352 2.16379
96 1 11.8364 24.3521 2.16364
97 1 10.9313 23.0737 0.00445215
98 1 13.6465 23.0737 0.00434055
99 1 7.31107 29.4653 6.62025
100 1 10.0262 29.4654 6.62013
101 1 9.12124 28.187 4.39087
102 1 11.8364 28.1871 4.39077
103 1 10.9314 26.9087 2.16381
104 1 13.6465 26.9087 2.16374
105 1 12.7414 25.6304 0.00447791
106 1 15.4566 25.6304 0.00442136
107 1 12.7415 29.4653 2.16387
108 1 15.4566 29.4653 2.16386
109 1 14.5515 28.187 0.00457163
110 1 0.976021 1.34168 2.16417
554 1 11.8364 5.1758 8.84864
112 1 2.78608 30.7436 0.00486438
113 1 0.975932 5.17665 4.3911
553 1 9.12084 5.17569 8.84856
115 1 2.78606 3.89832 2.16405
116 1 1.88104 2.62 0.00486357
117 1 4.59613 2.61997 0.00474888
118 1 0.97572 9.01165 6.62028
541 1 10.0261 2.61955 8.84925
120 1 2.78591 7.7333 4.39088
121 1 1.88101 6.45501 2.16404
122 1 4.59609 6.45496 2.16386
123 1 3.69108 5.17664 0.00472866
124 1 6.4062 5.17663 0.00462062
540 1 7.31088 2.61957 8.84937
126 1 2.78566 11.5684 6.61999
127 1 1.88088 10.2901 4.39093
128 1 4.59593 10.29 4.39062
129 1 3.69105 9.01169 2.16388
130 1 6.40617 9.01168 2.16376
131 1 5.50115 7.73333 0.00462093
132 1 8.21629 7.73332 0.00456345
133 1 1.88071 14.1252 6.62018
134 1 4.59575 14.1253 6.61985
135 1 3.69093 12.8468 4.39078
136 1 6.40609 12.8468 4.39062
137 1 5.50114 11.5684 2.16381
138 1 8.21627 11.5684 2.16371
139 1 7.31123 10.29 0.00456031
140 1 10.0264 10.29 0.00451008
141 1 3.69083 16.682 6.62015
142 1 6.40598 16.6821 6.61992
143 1 5.50105 15.4036 4.39076
144 1 8.21619 15.4036 4.39057
145 1 7.31122 14.1251 2.16374
146 1 10.0263 14.1251 2.16363
147 1 9.12129 12.8467 0.00448372
148 1 11.8364 12.8467 0.0044279
149 1 5.50092 19.2387 6.62011
150 1 8.21599 19.2388 6.61975
151 1 7.31112 17.9603 4.39067
152 1 10.0262 17.9603 4.39042
153 1 9.12127 16.6818 2.16364
154 1 11.8364 16.6818 2.16351
155 1 10.9314 15.4034 0.00438757
156 1 13.6465 15.4034 0.00433255
157 1 7.31089 21.7955 6.61991
158 1 10.026 21.7958 6.61945
159 1 9.12115 20.517 4.39053
160 1 11.8363 20.5171 4.39025
161 1 10.9313 19.2386 2.16354
162 1 13.6465 19.2386 2.16341
163 1 12.7414 17.9602 0.00430146
164 1 15.4566 17.9602 0.00426037
165 1 9.12103 24.3524 6.61983
166 1 11.8363 24.3526 6.61952
167 1 10.9313 23.0739 4.39043
168 1 13.6465 23.074 4.39019
169 1 12.7414 21.7954 2.16348
170 1 15.4566 21.7954 2.16338
171 1 14.5515 20.517 0.00425698
172 1 10.9312 26.909 6.61994
173 1 13.6465 26.9091 6.61983
174 1 12.7414 25.6306 4.39054
175 1 15.4567 25.6306 4.39047
176 1 14.5516 24.3521 2.16353
177 1 12.7414 29.4654 6.62006
178 1 15.4567 29.4655 6.62005
179 1 14.5516 28.1871 4.39073
180 1 0.975885 1.34164 6.62052
530 1 8.21601 30.7435 8.84953
182 1 2.78602 30.7436 4.39112
529 1 5.50087 30.7435 8.84968
184 1 2.78584 3.89818 6.62032
185 1 1.88098 2.61997 4.39111
186 1 4.59604 2.61991 4.39095
187 1 3.6911 1.34166 2.16407
188 1 6.4062 1.34165 2.16396
189 1 5.50117 30.7436 0.00477415
190 1 8.21628 30.7436 0.00470192
191 1 1.88076 6.45488 6.62028
192 1 4.59573 6.4547 6.61987
193 1 3.69097 5.17657 4.39089
194 1 6.40605 5.17646 4.39063
195 1 5.50115 3.89828 2.1639
196 1 8.21627 3.89826 2.1638
197 1 7.31124 2.61996 0.00465877
198 1 10.0264 2.61998 0.00462296
199 1 3.69065 9.01154 6.61986
200 1 6.40563 9.01136 6.61915
201 1 5.50096 7.73321 4.39054
202 1 8.21617 7.7332 4.39041
203 1 7.31122 6.45494 2.16375
204 1 10.0264 6.45496 2.16375
205 1 9.12134 5.17663 0.00458424
206 1 11.8365 5.17664 0.00459901
207 1 5.50066 11.5684 6.61946
208 1 8.21602 11.5685 6.61938
209 1 7.31112 10.29 4.39049
210 1 10.0264 10.29 4.39049
211 1 9.12133 9.01168 2.16372
212 1 11.8365 9.01168 2.16373
213 1 10.9314 7.73332 0.00455519
214 1 13.6465 7.73331 0.00458061
215 1 7.311 14.1254 6.61968
216 1 10.0263 14.1253 6.61948
217 1 9.12127 12.8468 4.3905
218 1 11.8365 12.8468 4.39047
219 1 10.9314 11.5684 2.16367
220 1 13.6465 11.5684 2.16367
221 1 12.7415 10.29 0.00450175
222 1 15.4566 10.29 0.00452999
223 1 9.12114 16.6821 6.61959
224 1 11.8364 16.6821 6.61924
225 1 10.9314 15.4035 4.3904
226 1 13.6465 15.4035 4.3903
227 1 12.7415 14.1251 2.16357
228 1 15.4566 14.1251 2.16357
229 1 14.5516 12.8467 0.00442047
230 1 10.9311 19.239 6.61929
231 1 13.6465 19.2391 6.61881
232 1 12.7414 17.9603 4.39019
233 1 15.4567 17.9603 4.39007
234 1 14.5516 16.6818 2.16344
235 1 12.7413 21.7961 6.61891
236 1 15.4569 21.7963 6.61853
237 1 14.5516 20.5172 4.39002
238 1 14.5516 24.3528 6.61933
239 1 3.69092 1.34158 6.62037
240 1 6.40602 1.34153 6.62022
241 1 5.50111 30.7435 4.39101
242 1 8.21623 30.7436 4.39091
243 1 5.50087 3.898 6.62002
244 1 8.21605 3.89791 6.61982
245 1 7.31116 2.61987 4.39081
246 1 10.0263 2.61988 4.39076
247 1 9.12132 1.34166 2.1639
248 1 11.8364 1.34168 2.16388
249 1 10.9314 0.0633795 0.0046578
250 1 13.6465 0.0634095 0.00464401
251 1 7.31078 6.45443 6.61927
252 1 10.0261 6.45438 6.61909
253 1 9.12124 5.17643 4.3905
254 1 11.8365 5.17649 4.39057
255 1 10.9314 3.89828 2.1638
256 1 13.6465 3.89831 2.16385
257 1 12.7415 2.62 0.0046331
258 1 15.4566 2.62003 0.00466975
259 1 9.12106 9.01141 6.61909
260 1 11.8366 9.01158 6.61948
261 1 10.9314 7.73326 4.39051
262 1 13.6466 7.7333 4.39066
263 1 12.7415 6.45498 2.1638
264 1 15.4566 6.455 2.16386
265 1 14.5516 5.17666 0.00463998
266 1 10.9314 11.5685 6.61946
267 1 13.6467 11.5684 6.61965
268 1 12.7416 10.29 4.39057
269 1 15.4567 10.29 4.39067
270 1 14.5516 9.01168 2.16378
271 1 12.7416 14.1253 6.61942
272 1 15.4568 14.1252 6.61944
273 1 14.5516 12.8467 4.39049
274 1 14.5517 16.6821 6.61902
275 1 9.12119 1.34153 6.62011
276 1 11.8364 1.34158 6.62006
277 1 10.9314 0.0633726 4.39085
278 1 13.6465 0.0634084 4.39083
279 1 10.9313 3.89795 6.6198
280 1 13.6466 3.89806 6.61989
281 1 12.7415 2.61992 4.39078
282 1 15.4566 2.61997 4.39083
283 1 14.5516 1.3417 2.1639
284 1 12.7416 6.45459 6.61945
285 1 15.4568 6.45478 6.61985
286 1 14.5516 5.17657 4.39072
287 1 14.5518 9.01164 6.61982
288 1 14.5516 1.34163 6.62008
289 1 0.97581 28.1869 8.84993
290 1 0.975729 20.5171 8.84983
506 1 14.552 20.5191 8.84631
293 1 2.78573 23.0738 8.84977
297 1 1.88078 25.6304 8.84987
298 1 4.59575 25.6305 8.84966
301 1 3.69081 28.187 8.84979
302 1 6.40586 28.1872 8.84961
303 1 0.975433 12.8468 8.8495
491 1 15.4572 17.9615 8.84671
306 1 2.78547 15.4038 8.84933
310 1 1.88067 17.9605 8.84965
311 1 4.59575 17.9606 8.84943
317 1 3.69073 20.5172 8.84965
318 1 6.4057 20.5173 8.84927
326 1 5.50068 23.074 8.84945
327 1 8.2157 23.0744 8.84897
334 1 7.31079 25.6308 8.84937
335 1 10.026 25.6311 8.84907
338 1 9.12102 28.1873 8.84943
339 1 11.8363 28.1875 8.84929
340 1 0.975656 5.17649 8.84976
490 1 12.7412 17.9612 8.84766
343 1 2.78542 7.73304 8.84933
347 1 1.88038 10.2899 8.84936
348 1 4.59513 10.2898 8.84859
354 1 3.69024 12.8469 8.84892
355 1 6.40517 12.847 8.84807
363 1 5.50055 15.404 8.84894
364 1 8.216 15.4041 8.84877
374 1 7.31091 17.9607 8.84912
375 1 10.026 17.9609 8.8485
387 1 9.12066 20.5178 8.84855
388 1 11.836 20.5185 8.84745
399 1 10.931 23.0749 8.84838
400 1 13.6466 23.0753 8.84791
407 1 12.7414 25.6314 8.84884
408 1 15.4568 25.6314 8.84877
411 1 14.5516 28.1875 8.84923
474 1 13.6468 15.404 8.84798
414 1 2.78581 30.7435 8.84984
418 1 1.88075 2.61985 8.84981
419 1 4.59575 2.61969 8.84959
425 1 3.69057 5.17626 8.84942
426 1 6.40552 5.17585 8.84885
434 1 5.50023 7.73267 8.84855
435 1 8.21514 7.73193 8.847
445 1 7.3099 10.2895 8.84706
446 1 10.0259 10.2897 8.84743
458 1 9.12094 12.8473 8.84821
459 1 11.8365 12.8471 8.84829
473 1 10.9313 15.404 8.84822
1839 1 16.3618 3.89816 6.62002
1948 1 16.3623 23.0753 8.84787
1998 1 16.3622 7.73299 8.84902
1296 1 14.5516 1.34169 37.8332
1295 1 14.5516 9.01167 37.8333
291 1 0.975655 24.3521 11.0793
1294 1 14.5516 5.17659 35.6039
1293 1 15.4566 6.45499 37.8333
294 1 0.975633 28.187 13.3088
4969 3 13.1868 13.8111 18.3284
296 1 2.78566 26.9088 11.0793
1292 1 12.7415 6.45498 37.8333
1291 1 14.5516 1.34165 33.3744
299 1 1.88071 29.4653 11.0793
300 1 4.5957 29.4654 11.0792
1290 1 15.4566 2.61998 35.6038
1289 1 12.7415 2.61996 35.6038
1288 1 13.6465 3.89832 37.8332
304 1 0.975348 16.6822 11.079
1287 1 10.9314 3.89831 37.8332
1286 1 13.6465 30.7436 35.6038
307 1 0.975475 20.5173 13.3087
1224 1 11.8364 12.8467 35.6043
309 1 2.78556 19.239 11.0791
1285 1 10.9314 30.7436 35.6038
1284 1 11.8365 1.34168 37.8332
312 1 0.975496 24.3522 15.5383
1223 1 9.12126 12.8467 35.6042
314 1 2.78544 23.074 13.3087
315 1 1.8806 21.7955 11.0792
316 1 4.59552 21.7958 11.079
1283 1 9.12137 1.34167 37.8332
1282 1 14.5516 16.6818 37.8334
319 1 0.975587 28.187 17.7679
1222 1 10.0264 14.1251 37.8334
321 1 2.78548 26.9089 15.5383
322 1 1.88055 25.6305 13.3088
323 1 4.59542 25.6308 13.3086
324 1 3.69057 24.3523 11.0791
325 1 6.40545 24.3527 11.0787
1281 1 14.5516 12.8467 35.6042
1280 1 15.4566 14.1251 37.8334
328 1 1.88057 29.4653 15.5384
329 1 4.5955 29.4655 15.5383
330 1 3.69056 28.1872 13.3087
331 1 6.4055 28.1876 13.3085
332 1 5.50061 26.909 11.079
333 1 8.21569 26.9094 11.0788
1279 1 12.7415 14.1251 37.8334
1278 1 14.5517 9.01146 33.375
336 1 7.31078 29.4655 11.079
337 1 10.026 29.4656 11.0788
1277 1 15.4567 10.29 35.6041
1276 1 12.7415 10.29 35.6042
1275 1 13.6465 11.5684 37.8334
341 1 0.975142 9.01146 11.0789
1274 1 10.9314 11.5684 37.8334
1273 1 14.5517 5.17638 31.1452
344 1 0.974334 12.8469 13.3082
1221 1 7.31125 14.1251 37.8334
346 1 2.78467 11.5683 11.0783
1272 1 15.4567 6.45482 33.3747
1271 1 12.7415 6.45474 33.3748
349 1 0.974909 16.6825 15.5381
1220 1 14.5517 5.17608 26.6864
351 1 2.78429 15.4042 13.3078
352 1 1.87993 14.1254 11.0786
353 1 4.59451 14.1256 11.0777
1270 1 13.6466 7.73324 35.6041
1269 1 10.9314 7.73323 35.6041
356 1 0.975385 20.5173 17.7679
1219 1 15.4569 6.45452 28.9159
358 1 2.7852 19.2393 15.5382
359 1 1.88031 17.9608 13.3085
360 1 4.59535 17.9612 13.3082
361 1 3.6903 16.6825 11.0786
362 1 6.40563 16.6828 11.0783
1268 1 11.8365 9.01167 37.8334
1267 1 9.12134 9.01168 37.8334
365 1 0.975549 24.3522 19.9975
1218 1 12.7416 6.45432 28.9162
367 1 2.78535 23.0741 17.7679
368 1 1.88038 21.7957 15.5383
369 1 4.59516 21.7962 15.5381
370 1 3.69037 20.5176 13.3085
371 1 6.40522 20.518 13.3081
372 1 5.50061 19.2392 11.0788
373 1 8.21546 19.2395 11.0781
1266 1 14.5516 1.34158 28.9157
1265 1 15.4566 2.61988 31.1451
376 1 0.9757 28.187 22.227
1217 1 13.6467 7.73281 31.1458
378 1 2.78554 26.9089 19.9975
379 1 1.88048 25.6306 17.7679
380 1 4.5953 25.631 17.7679
381 1 3.69032 24.3525 15.5382
382 1 6.40503 24.3533 15.5379
383 1 5.50026 23.0745 13.3083
384 1 8.21488 23.0758 13.3075
385 1 7.31034 21.7963 11.0783
386 1 10.0254 21.7975 11.0772
1264 1 12.7415 2.61984 31.1451
1263 1 13.6466 3.8982 33.3745
389 1 1.88063 29.4653 19.9975
390 1 4.59559 29.4656 19.9975
391 1 3.69049 28.1873 17.7679
392 1 6.40534 28.1879 17.7679
393 1 5.50032 26.9094 15.5382
394 1 8.21516 26.9105 15.538
395 1 7.31024 25.6316 13.3082
396 1 10.0255 25.6325 13.3078
397 1 9.12054 24.3535 11.0782
398 1 11.836 24.3541 11.0778
1262 1 10.9314 3.89816 33.3746
1261 1 11.8365 5.17656 35.604
401 1 7.31048 29.466 15.5382
402 1 10.0258 29.4662 15.5381
403 1 9.12068 28.188 13.3083
404 1 11.8361 28.1881 13.3082
405 1 10.931 26.9098 11.0785
406 1 13.6465 26.9099 11.0784
1260 1 9.12132 5.17656 35.604
1259 1 10.0264 6.45498 37.8333
409 1 12.7414 29.4657 11.0787
410 1 15.4568 29.4656 11.0787
1258 1 7.31128 6.45499 37.8333
412 1 0.975679 1.34156 11.0793
1257 1 13.6465 30.7436 31.1451
1256 1 10.9314 30.7436 31.145
415 1 0.975272 5.17626 13.3087
1216 1 10.9313 7.73265 31.1461
417 1 2.78549 3.89794 11.0791
1255 1 11.8365 1.34163 33.3744
1254 1 9.12133 1.34161 33.3744
420 1 0.974202 9.01112 15.538
1215 1 11.8364 9.01142 33.3751
422 1 2.78453 7.73261 13.3081
423 1 1.88028 6.45461 11.079
424 1 4.595 6.45414 11.0784
1253 1 10.0264 2.61995 35.6038
1252 1 7.31127 2.61995 35.6038
427 1 0.972181 12.8469 17.7678
1214 1 9.12117 9.01142 33.3751
429 1 2.78234 11.568 15.5374
430 1 1.87923 10.2897 13.3081
431 1 4.59309 10.2892 13.3069
432 1 3.6897 9.01113 11.0782
433 1 6.40412 9.01038 11.0767
1251 1 8.21633 3.89831 37.8332
1250 1 5.50123 3.89833 37.8332
436 1 0.974997 16.6824 19.9976
1213 1 10.0263 10.29 35.6042
438 1 2.7835 15.4045 17.7677
439 1 1.87782 14.1257 15.5376
440 1 4.59008 14.1263 15.5362
441 1 3.68817 12.8469 13.3072
442 1 6.40128 12.8467 13.3047
443 1 5.49898 11.5681 11.0769
444 1 8.21322 11.5676 11.0737
1249 1 8.21632 30.7436 35.6038
1248 1 5.50122 30.7436 35.6037
447 1 0.975589 20.5172 22.227
1212 1 7.31118 10.29 35.6041
449 1 2.78535 19.2392 19.9975
450 1 1.88008 17.9609 17.7678
451 1 4.59482 17.9615 17.7677
452 1 3.68971 16.683 15.5377
453 1 6.40521 16.6839 15.5373
454 1 5.49889 15.4048 13.3067
455 1 8.21514 15.4052 13.3068
456 1 7.30944 14.1261 11.0767
457 1 10.0262 14.1265 11.0774
1247 1 6.40628 1.34167 37.8332
1246 1 3.69118 1.34168 37.8331
460 1 0.975734 24.3521 24.4565
1211 1 8.21629 11.5684 37.8334
462 1 2.78558 23.0739 22.2271
463 1 1.88047 21.7957 19.9975
464 1 4.59532 21.7961 19.9976
465 1 3.69021 20.5178 17.7679
466 1 6.40486 20.5186 17.7677
467 1 5.49998 19.2399 15.5379
468 1 8.21466 19.2402 15.5371
469 1 7.31077 17.9613 13.3083
470 1 10.0252 17.9623 13.3065
471 1 9.12125 16.6826 11.0784
472 1 11.8358 16.6828 11.077
1245 1 14.5515 24.352 37.8333
1244 1 14.5516 20.517 35.6042
475 1 0.975856 28.187 26.6859
1210 1 5.50118 11.5684 37.8333
477 1 2.78575 26.9088 24.4566
478 1 1.88064 25.6305 22.227
479 1 4.59554 25.6307 22.2272
480 1 3.69041 24.3525 19.9975
481 1 6.40514 24.3532 19.9977
482 1 5.50007 23.0748 17.7678
483 1 8.21437 23.0767 17.7676
484 1 7.30974 21.7971 15.5375
485 1 10.0234 21.802 15.5358
486 1 9.11957 20.5198 13.3063
487 1 11.8353 20.5232 13.3041
488 1 10.9302 19.241 11.0761
489 1 13.6468 19.2429 11.0729
1243 1 15.4566 21.7953 37.8333
1242 1 12.7415 21.7953 37.8333
492 1 1.88079 29.4653 24.4565
493 1 4.59581 29.4654 24.4566
494 1 3.69066 28.1872 22.2271
495 1 6.40561 28.1876 22.2273
496 1 5.50039 26.9094 19.9976
497 1 8.2152 26.9106 19.9978
498 1 7.30995 25.6322 17.7678
499 1 10.0247 25.6347 17.7678
500 1 9.11952 24.3557 15.5373
501 1 11.8355 24.3568 15.5371
502 1 10.9303 23.0775 13.3067
503 1 13.6466 23.078 13.3062
504 1 12.7413 21.7985 11.0762
505 1 15.4576 21.7987 11.0759
1241 1 14.5517 16.682 33.3753
507 1 7.31056 29.4661 19.9977
508 1 10.0258 29.4663 19.9978
509 1 9.12036 28.1888 17.7679
510 1 11.836 28.1889 17.7679
511 1 10.9307 26.9111 15.5378
512 1 13.6465 26.9109 15.5378
513 1 12.7412 25.6329 13.3076
514 1 15.457 25.6326 13.3077
515 1 14.5518 24.3542 11.0776
516 1 12.7413 29.466 15.5381
517 1 15.4569 29.4656 15.5381
518 1 14.5517 28.188 13.3082
519 1 0.97554 1.3415 15.5384
1209 1 14.5516 1.34153 24.4569
521 1 2.78559 30.7435 13.3088
522 1 0.975184 5.17611 17.7679
1208 1 15.4567 2.61973 26.6863
524 1 2.78522 3.89776 15.5382
525 1 1.88048 2.6197 13.3088
526 1 4.59543 2.61954 13.3086
527 1 3.69065 1.34148 11.0792
528 1 6.40573 1.34143 11.079
1240 1 15.4567 17.9603 35.6042
1239 1 12.7415 17.9603 35.6042
531 1 0.974452 9.0111 19.9977
1207 1 12.7415 2.61973 26.6863
533 1 2.78408 7.73216 17.7678
534 1 1.87973 6.45425 15.5381
535 1 4.59424 6.45365 15.5378
536 1 3.69001 5.17586 13.3084
537 1 6.40487 5.17525 13.308
538 1 5.50043 3.8976 11.0788
539 1 8.21564 3.89735 11.0785
1238 1 13.6465 19.2386 37.8334
1237 1 10.9314 19.2386 37.8334
542 1 0.974451 12.8468 22.2275
1206 1 13.6466 3.898 28.9158
544 1 2.78257 11.5679 19.9979
545 1 1.87769 10.2892 17.7678
546 1 4.59018 10.2879 17.7674
547 1 3.68797 9.01044 15.5375
548 1 6.40111 9.00895 15.5359
549 1 5.49879 7.73172 13.3072
550 1 8.21307 7.72966 13.3054
551 1 7.30974 6.45321 11.0773
552 1 10.0255 6.45291 11.0769
1236 1 14.5519 12.8466 31.1465
1235 1 15.4568 14.1251 33.3752
555 1 0.975399 16.6822 24.4568
1205 1 10.9314 3.89794 28.9158
557 1 2.78434 15.4041 22.2277
558 1 1.87752 14.1256 19.998
559 1 4.58895 14.1261 19.9987
560 1 3.68197 12.8469 17.7676
561 1 6.3824 12.8467 17.7667
562 1 5.4942 11.5673 15.5358
563 1 8.20306 11.5644 15.5297
564 1 7.30645 10.2876 13.3039
565 1 10.0181 10.2801 13.2897
566 1 9.11834 9.00807 11.0722
567 1 11.8357 9.00843 11.0729
1234 1 12.7415 14.1251 33.3753
1233 1 13.6466 15.4035 35.6043
570 1 0.975773 20.517 26.686
1204 1 11.8365 5.17628 31.1453
572 1 2.7857 19.2389 24.4566
573 1 1.88046 17.9607 22.2272
574 1 4.59565 17.9609 22.2272
575 1 3.68994 16.6829 19.9977
576 1 6.40564 16.6834 19.9976
577 1 5.49779 15.4055 17.7671
578 1 8.21491 15.408 17.7655
579 1 7.30102 14.1274 15.5321
580 1 10.0176 14.1224 15.5322
581 1 9.11425 12.8469 13.2988
582 1 11.8366 12.8501 13.3053
583 1 10.9308 11.5686 11.0757
584 1 13.6474 11.569 11.0781
1232 1 10.9314 15.4035 35.6043
1231 1 11.8364 16.6818 37.8334
587 1 0.975896 24.352 28.9154
1203 1 9.1212 5.17622 31.1454
589 1 2.78581 23.0738 26.6861
590 1 1.88071 21.7955 24.4566
591 1 4.5957 21.7956 24.4567
592 1 3.69058 20.5174 22.2271
593 1 6.40557 20.5176 22.2273
594 1 5.50027 19.2397 19.9976
595 1 8.21517 19.2398 19.9975
596 1 7.30928 17.9625 17.7676
597 1 10.0227 17.962 17.7653
598 1 9.12352 16.6817 15.5393
599 1 11.8375 16.6932 15.5319
600 1 10.933 15.4038 13.3106
601 1 13.6446 15.4042 13.3049
602 1 12.7419 14.1258 11.0766
603 1 15.4571 14.1252 11.0778
1230 1 9.12133 16.6818 37.8334
605 1 0.975984 28.1869 31.1448
1202 1 10.0263 6.45469 33.3749
607 1 2.78595 26.9087 28.9155
608 1 1.88084 25.6304 26.686
609 1 4.59584 25.6305 26.6861
610 1 3.6907 24.3522 24.4566
611 1 6.40561 24.3526 24.4569
612 1 5.50045 23.0743 22.2273
613 1 8.21505 23.0756 22.2279
614 1 7.30996 21.7968 19.9977
615 1 10.0231 21.803 19.9986
616 1 9.11865 20.5209 17.7669
617 1 11.829 20.5414 17.7663
618 1 10.9266 19.2494 15.5317
619 1 13.6468 19.2545 15.529
620 1 12.74 17.9687 13.2982
621 1 15.4642 17.973 13.2889
622 1 14.5519 16.6837 11.075
623 1 1.88094 29.4652 28.9154
624 1 4.59602 29.4653 28.9155
625 1 3.69089 28.187 26.6861
626 1 6.40596 28.1871 26.6862
627 1 5.50073 26.909 24.4567
628 1 8.21583 26.9094 24.4569
629 1 7.31036 25.6315 22.2275
630 1 10.0257 25.6322 22.2277
631 1 9.11951 24.3559 19.998
632 1 11.8357 24.3564 19.998
633 1 10.9282 23.0836 17.7673
634 1 13.6468 23.0813 17.7671
635 1 12.7406 21.8039 15.5352
636 1 15.4581 21.8025 15.5352
637 1 14.5529 20.5239 13.303
638 1 7.31092 29.4656 24.4567
639 1 10.0261 29.4657 24.4569
640 1 9.1208 28.1879 22.2274
641 1 11.8362 28.188 22.2275
642 1 10.9308 26.911 19.9978
643 1 13.6465 26.9106 19.9978
644 1 12.7411 25.6345 17.7677
645 1 15.4573 25.6331 17.7677
646 1 14.5519 24.3564 15.537
647 1 12.7413 29.4661 19.9978
648 1 15.4568 29.4656 19.9978
649 1 14.5518 28.1882 17.7679
650 1 0.975626 1.34155 19.9975
1201 1 7.31111 6.45474 33.3748
652 1 2.78557 30.7436 17.7679
653 1 0.975457 5.17632 22.2271
1200 1 8.21625 7.73324 35.6041
655 1 2.78547 3.8979 19.9975
656 1 1.88048 2.61969 17.7679
657 1 4.59552 2.61973 17.7679
658 1 3.6905 1.34149 15.5383
659 1 6.40554 1.34158 15.5383
660 1 5.50059 0.0634004 13.3087
661 1 8.21574 0.0635003 13.3085
662 1 0.97526 9.01143 24.4568
1199 1 5.50112 7.73328 35.604
664 1 2.7849 7.73268 22.2274
665 1 1.88002 6.45433 19.9976
666 1 4.59492 6.45399 19.9976
667 1 3.69007 5.17581 17.7679
668 1 6.40535 5.17594 17.7678
669 1 5.5002 3.89755 15.5382
670 1 8.21542 3.89722 15.538
671 1 7.31056 2.61937 13.3084
672 1 10.0259 2.61915 13.3082
673 1 9.12095 1.3414 11.0788
674 1 11.8363 1.34138 11.0787
1229 1 14.5521 9.01079 28.917
1228 1 15.4569 10.2897 31.146
677 1 0.975398 12.8468 26.6863
1198 1 6.40623 9.01169 37.8333
679 1 2.78476 11.5682 24.4572
680 1 1.87949 10.2896 22.2275
681 1 4.59362 10.2891 22.228
682 1 3.68865 9.01048 19.9978
683 1 6.40296 9.00954 19.9982
684 1 5.49876 7.73135 17.7675
685 1 8.21516 7.73285 17.7671
686 1 7.30913 6.4529 15.5376
687 1 10.0249 6.45154 15.5369
688 1 9.12026 5.17467 13.3076
689 1 11.8361 5.17432 13.3072
690 1 10.9311 3.89725 11.0783
691 1 13.6466 3.8973 11.0783
1227 1 12.7415 10.2895 31.1464
1226 1 13.6466 11.5682 33.3752
694 1 0.975705 16.682 28.9156
1197 1 3.69113 9.01171 37.8332
696 1 2.78537 15.4037 26.6865
697 1 1.87995 14.1253 24.457
698 1 4.59441 14.1254 24.4576
699 1 3.68844 12.8467 22.228
700 1 6.40164 12.8463 22.2293
701 1 5.49507 11.5669 19.9984
702 1 8.20634 11.5638 20.0003
703 1 7.30255 10.285 17.766
704 1 10.0257 10.2961 17.7631
705 1 9.11473 9.00541 15.5341
706 1 11.8338 9.00169 15.5325
707 1 10.9297 7.72894 13.3047
708 1 13.647 7.72935 13.3052
709 1 12.7415 6.45317 11.0772
710 1 15.4572 6.45364 11.0777
1225 1 10.9313 11.5682 33.3753
712 1 0.975903 20.517 31.1449
1196 1 13.6465 0.0634129 26.6863
714 1 2.78581 19.2387 28.9156
715 1 1.88067 17.9604 26.6862
716 1 4.5957 17.9606 26.6864
717 1 3.69041 16.6824 24.4571
718 1 6.40574 16.6825 24.4573
719 1 5.49908 15.4045 22.2285
720 1 8.21574 15.404 22.2286
721 1 7.29681 14.1266 20.0004
722 1 9.99953 14.1158 19.9919
723 1 9.05473 12.8475 17.7622
724 1 11.6543 12.685 17.7103
725 1 10.906 11.5415 15.4835
726 1 13.63 11.5518 15.5209
727 1 12.7402 10.2826 13.2958
728 1 15.4585 10.2889 13.3076
729 1 14.5528 9.01041 11.0769
730 1 0.976011 24.3519 33.3743
1195 1 10.9313 0.0634313 26.6863
732 1 2.78597 23.0737 31.1449
733 1 1.88087 21.7953 28.9155
734 1 4.59588 21.7955 28.9156
735 1 3.6908 20.5171 26.6861
736 1 6.40576 20.5173 26.6864
737 1 5.50084 19.239 24.4567
738 1 8.21577 19.2393 24.4573
739 1 7.31126 17.9608 22.227
740 1 10.0263 17.9617 22.2285
741 1 9.1238 16.6813 19.9969
742 1 11.8375 16.7123 19.9917
743 1 10.9504 15.392 17.7762
744 1 13.7407 15.6304 17.7101
745 1 12.7494 14.1213 15.5613
746 1 15.4683 14.1482 15.5203
747 1 14.5521 12.8476 13.3114
748 1 0.976065 28.1869 35.6037
1194 1 11.8364 1.34157 28.9157
750 1 2.78608 26.9086 33.3743
751 1 1.88099 25.6303 31.1449
752 1 4.59605 25.6303 31.145
753 1 3.69092 24.3521 28.9155
754 1 6.40596 24.3522 28.9157
755 1 5.50079 23.0739 26.6863
756 1 8.21581 23.0744 26.6866
757 1 7.31057 21.7961 24.4572
758 1 10.0256 21.7973 24.4578
759 1 9.11988 20.5194 22.2286
760 1 11.8357 20.5225 22.2293
761 1 10.9257 19.2534 20.0002
762 1 13.6483 19.2513 20
763 1 12.7195 18.0248 17.7617
764 1 15.4517 17.9608 17.7626
765 1 14.5699 16.7169 15.4829
766 1 1.88106 29.4652 33.3743
767 1 4.59615 29.4652 33.3743
768 1 3.69106 28.1869 31.1449
769 1 6.40615 28.187 31.145
770 1 5.50101 26.9087 28.9156
771 1 8.21612 26.9089 28.9157
772 1 7.3109 25.6307 26.6863
773 1 10.0261 25.631 26.6865
774 1 9.12072 24.3533 24.4572
775 1 11.8362 24.3537 24.4574
776 1 10.9306 23.077 22.2281
777 1 13.6467 23.0771 22.2281
778 1 12.7412 21.803 19.9983
779 1 15.458 21.8003 19.998
780 1 14.5541 20.5285 17.7655
781 1 7.31113 29.4653 28.9156
782 1 10.0263 29.4654 28.9157
783 1 9.12111 28.1873 26.6863
784 1 11.8364 28.1873 26.6864
785 1 10.9311 26.9096 24.4571
786 1 13.6465 26.9096 24.4571
787 1 12.7413 25.6324 22.2277
788 1 15.457 25.632 22.2276
789 1 14.5521 24.3555 19.9978
790 1 12.7414 29.4657 24.4569
791 1 15.4567 29.4655 24.4569
792 1 14.5517 28.1878 22.2275
793 1 0.975762 1.34159 24.4565
1193 1 9.12125 1.34156 28.9156
795 1 2.78572 30.7436 22.227
796 1 0.975712 5.17649 26.6861
1192 1 10.0263 2.61981 31.1451
798 1 2.78566 3.89803 24.4566
799 1 1.88065 2.61979 22.227
800 1 4.59572 2.6198 22.2271
801 1 3.69065 1.34162 19.9975
802 1 6.40573 1.34187 19.9976
803 1 5.50054 0.0636199 17.768
804 1 8.21559 0.0639544 17.768
805 1 0.975696 9.0116 28.9156
1191 1 7.31117 2.61981 31.1451
807 1 2.78549 7.73301 26.6864
808 1 1.88045 6.45464 24.4567
809 1 4.59531 6.45429 24.457
810 1 3.69039 5.1761 22.2272
811 1 6.40556 5.17597 22.2271
812 1 5.50064 3.89799 19.9975
813 1 8.21595 3.89822 19.9975
814 1 7.31062 2.61988 17.7679
815 1 10.0257 2.61958 17.7679
816 1 9.12074 1.34149 15.5382
817 1 11.8362 1.34112 15.538
818 1 10.9311 0.0634865 13.3084
819 1 13.6465 30.7436 13.3083
820 1 0.97579 12.8468 31.145
1190 1 8.21625 3.89815 33.3746
822 1 2.78555 11.5683 28.9159
823 1 1.88038 10.2899 26.6864
824 1 4.59509 10.2896 26.687
825 1 3.68992 9.01112 24.4572
826 1 6.40443 9.01042 24.458
827 1 5.49956 7.73214 22.2277
828 1 8.21458 7.73138 22.2276
829 1 7.3105 6.45435 19.9972
830 1 10.0263 6.45504 19.9972
831 1 9.1205 5.17607 17.7677
832 1 11.8355 5.17403 17.7676
833 1 10.9309 3.89648 15.5377
834 1 13.6468 3.89566 15.5376
835 1 12.7414 2.61893 13.3081
836 1 15.457 2.61881 13.308
837 1 14.5517 1.34136 11.0787
838 1 0.975922 16.6819 33.3744
1189 1 5.50111 3.89819 33.3745
840 1 2.78579 15.4036 31.1452
841 1 1.8806 14.1252 28.9158
842 1 4.59546 14.1253 28.9162
843 1 3.69011 12.8468 26.6868
844 1 6.40465 12.8467 26.6879
845 1 5.49906 11.5679 24.4581
846 1 8.21286 11.567 24.461
847 1 7.30735 10.288 22.2295
848 1 10.0197 10.282 22.2366
849 1 9.11956 9.01107 19.9966
850 1 11.8368 9.01435 19.9953
851 1 10.9302 7.73217 17.7664
852 1 13.6491 7.71807 17.7667
853 1 12.7417 6.44994 15.5362
854 1 15.459 6.44935 15.5361
855 1 14.5522 5.17428 13.3073
856 1 0.976024 20.5169 35.6037
1188 1 6.4062 5.17658 35.6039
858 1 2.78598 19.2386 33.3744
859 1 1.88085 17.9603 31.145
860 1 4.59585 17.9604 31.1452
861 1 3.69066 16.6821 28.9158
862 1 6.40557 16.6823 28.9164
863 1 5.50018 15.4039 26.687
864 1 8.21492 15.4044 26.6885
865 1 7.30862 14.1255 24.459
866 1 10.0227 14.1263 24.4655
867 1 9.11332 12.8459 22.2343
868 1 11.8197 12.8198 22.2831
869 1 10.9214 11.5663 20.0248
870 1 13.6395 11.5848 19.9802
871 1 12.7608 10.2662 17.7598
872 1 15.4838 10.2324 17.7694
873 1 14.5553 9.00248 15.5318
874 1 0.976083 24.3519 37.8331
1187 1 3.6911 5.17664 35.6038
876 1 2.7861 23.0736 35.6037
877 1 1.881 21.7953 33.3743
878 1 4.59606 21.7953 33.3744
879 1 3.69093 20.517 31.145
880 1 6.40596 20.5171 31.1453
881 1 5.50078 19.2389 28.9159
882 1 8.21573 19.2391 28.9164
883 1 7.31063 17.9608 26.6868
884 1 10.0253 17.9615 26.6885
885 1 9.12102 16.6825 24.4577
886 1 11.8345 16.6857 24.4655
887 1 10.9366 15.4009 22.2283
888 1 13.6673 15.4295 22.283
889 1 12.6538 14.1883 20.2186
890 1 15.4395 14.128 19.9799
891 1 14.7265 12.7255 17.6571
1186 1 4.59618 6.45501 37.8332
893 1 2.78615 26.9086 37.8331
894 1 1.88109 25.6303 35.6037
895 1 4.59618 25.6303 35.6037
896 1 3.69108 24.352 33.3744
897 1 6.40616 24.352 33.3744
898 1 5.50102 23.0737 31.1451
899 1 8.2161 23.0739 31.1452
900 1 7.31088 21.7957 28.9159
901 1 10.026 21.796 28.9163
902 1 9.12067 20.518 26.6871
903 1 11.836 20.5187 26.6879
904 1 10.9304 19.2416 24.4591
905 1 13.647 19.243 24.461
906 1 12.7402 17.9694 22.2342
907 1 15.4626 17.9704 22.2365
908 1 14.5511 16.6939 20.0246
909 1 1.88112 29.4652 37.8331
910 1 4.59622 29.4652 37.8331
911 1 3.69116 28.1869 35.6037
912 1 6.40625 28.1869 35.6037
913 1 5.50117 26.9086 33.3744
914 1 8.21627 26.9087 33.3744
915 1 7.31114 25.6304 31.1451
916 1 10.0263 25.6305 31.1452
917 1 9.12109 24.3524 28.9159
918 1 11.8363 24.3526 28.9161
919 1 10.9311 23.0748 26.6869
920 1 13.6466 23.075 26.6871
921 1 12.7414 21.798 24.4582
922 1 15.4574 21.7979 24.4581
923 1 14.5526 20.5224 22.2295
924 1 7.31125 29.4653 33.3744
925 1 10.0264 29.4653 33.3744
926 1 9.12127 28.187 31.145
927 1 11.8364 28.1871 31.1451
928 1 10.9313 26.9089 28.9158
929 1 13.6465 26.909 28.9158
930 1 12.7414 25.6311 26.6866
931 1 15.4568 25.6311 26.6866
932 1 14.5518 24.3536 24.4574
933 1 12.7415 29.4654 28.9157
934 1 15.4567 29.4654 28.9157
935 1 14.5516 28.1873 26.6864
936 1 0.975905 1.34163 28.9154
1185 1 1.88109 6.45503 37.8332