ITEM: TIMESTEP
12
ITEM: NUMBER OF ATOMS
14401
ITEM: BOX BOUNDS pp pp pp
8.8842503095653780e-02 6.5262563763605002e+01
1.1770510865790296e-01 6.1496191599689794e+01
-2.2325705499939485e+01 7.5684905275518872e+01
ITEM: ATOMS id type x y z
1 1 0.994024 28.2495 0.00525774
5 1 0.0888702 23.1346 0.00526409
3 1 0.994025 20.5772 0.00526214
4 1 0.994027 24.4134 2.16417
8 1 0.0888693 26.9708 2.16417
6 1 2.80441 23.1346 0.00526436
7 1 0.994025 28.2495 4.39075
20 1 65.2626 15.4623 0.00526259
9 1 2.80441 26.9708 2.16417
10 1 1.89922 25.6921 0.00526029
11 1 4.61479 25.6921 0.0052587
28 1 0.0888698 23.1346 4.39075
13 1 1.89922 29.5282 2.16417
14 1 4.61478 29.5282 2.16417
15 1 3.7096 28.2495 0.00525734
16 1 6.42516 28.2495 0.00525845
35 1 0.0888696 26.9708 6.61964
18 1 0.994024 12.9049 0.00526296
19 1 0.994026 16.741 2.16417
5351 1 27.2445 30.8069 22.2219
21 1 2.8044 15.4623 0.0052636
22 1 0.994025 20.5772 4.39075
7909 1 32.6757 15.4623 22.2218
24 1 2.80441 19.2985 2.16417
25 1 1.89921 18.0198 0.00526537
26 1 4.61478 18.0198 0.00526578
27 1 0.994026 24.4134 6.61964
5323 1 29.9601 30.8068 17.7642
29 1 2.8044 23.1346 4.39075
30 1 1.89922 21.8559 2.16417
31 1 4.61478 21.8559 2.16417
32 1 3.70959 20.5772 0.0052626
33 1 6.42517 20.5772 0.0052613
34 1 0.994026 28.2495 8.84853
94 1 0.0888697 26.9708 11.0774
36 1 2.80441 26.9708 6.61964
37 1 1.89922 25.6921 4.39075
38 1 4.61478 25.6921 4.39075
39 1 3.70959 24.4134 2.16417
40 1 6.42517 24.4134 2.16417
41 1 5.51998 23.1346 0.00526235
42 1 8.23555 23.1346 0.00525975
106 1 65.2626 30.8069 13.3063
44 1 1.89922 29.5282 6.61964
45 1 4.61478 29.5282 6.61964
46 1 3.70959 28.2495 4.39075
47 1 6.42516 28.2495 4.39075
48 1 5.51998 26.9708 2.16417
49 1 8.23554 26.9708 2.16418
50 1 7.33035 25.6921 0.00525916
51 1 10.0459 25.6921 0.00526311
52 1 7.33034 29.5282 2.16418
53 1 10.0459 29.5282 2.16418
54 1 9.14072 28.2495 0.00526215
55 1 11.8563 28.2495 0.00526362
143 1 65.2626 7.79002 4.39075
57 1 0.994024 5.23258 0.00525981
58 1 0.994025 9.06874 2.16417
67 1 65.2626 15.4623 4.39075
60 1 2.8044 7.79002 0.00526328
61 1 0.994024 12.9049 4.39075
5157 1 27.2445 30.8066 8.84859
63 1 2.8044 11.6262 2.16417
64 1 1.89921 10.3475 0.00526457
65 1 4.61478 10.3475 0.00526502
66 1 0.994026 16.741 6.61964
159 1 65.2626 15.4623 8.84853
68 1 2.8044 15.4623 4.39075
69 1 1.89921 14.1836 2.16417
70 1 4.61478 14.1836 2.16417
71 1 3.70959 12.9049 0.00526376
72 1 6.42517 12.9049 0.00526362
73 1 0.994025 20.5772 8.84853
170 1 0.0888687 19.2985 11.0774
75 1 2.80441 19.2985 6.61964
76 1 1.89922 18.0198 4.39075
77 1 4.61478 18.0198 4.39075
78 1 3.70959 16.741 2.16417
79 1 6.42517 16.741 2.16417
80 1 5.51998 15.4623 0.00526372
81 1 8.23555 15.4623 0.00526256
82 1 0.994026 24.4134 11.0774
5141 1 21.8133 30.8068 13.3064
84 1 2.8044 23.1346 8.84853
85 1 1.89921 21.8559 6.61964
86 1 4.61478 21.8559 6.61964
87 1 3.70959 20.5772 4.39075
88 1 6.42516 20.5772 4.39075
89 1 5.51997 19.2985 2.16417
90 1 8.23555 19.2985 2.16417
91 1 7.33036 18.0198 0.00526487
92 1 10.0459 18.0198 0.00526308
93 1 0.994026 28.2495 13.3063
5012 1 29.9601 30.8068 4.39074
95 1 2.80441 26.9708 11.0774
96 1 1.89922 25.6921 8.84853
97 1 4.61478 25.6921 8.84853
98 1 3.70959 24.4134 6.61964
99 1 6.42516 24.4134 6.61964
100 1 5.51998 23.1346 4.39075
101 1 8.23554 23.1346 4.39075
102 1 7.33035 21.8559 2.16417
103 1 10.0459 21.8559 2.16417
104 1 9.14074 20.5772 0.00525958
105 1 11.8563 20.5772 0.00525968
183 1 0.0888691 23.1346 13.3063
107 1 1.89922 29.5282 11.0774
108 1 4.61478 29.5282 11.0774
109 1 3.70959 28.2495 8.84853
110 1 6.42516 28.2495 8.84853
111 1 5.51997 26.9708 6.61964
112 1 8.23554 26.9708 6.61964
113 1 7.33036 25.6921 4.39075
114 1 10.0459 25.6921 4.39076
115 1 9.14074 24.4133 2.16417
116 1 11.8563 24.4133 2.16418
117 1 10.9511 23.1346 0.00526021
118 1 13.6667 23.1346 0.00526323
119 1 7.33034 29.5282 6.61964
120 1 10.0459 29.5282 6.61965
121 1 9.14072 28.2495 4.39076
122 1 11.8563 28.2495 4.39076
123 1 10.9511 26.9708 2.16418
124 1 13.6667 26.9708 2.16418
125 1 12.7615 25.692 0.00526692
126 1 15.477 25.692 0.0052598
198 1 65.2626 26.9708 15.5352
264 1 65.2626 3.95387 6.61964
129 1 12.7614 29.5282 2.16418
130 1 15.477 29.5282 2.16416
131 1 14.5718 28.2495 0.00525656
132 1 17.2874 28.2494 0.00524508
83 1 0.0888699 23.1346 8.84853
134 1 0.994029 1.39643 2.16417
284 1 65.2626 11.6262 11.0774
273 1 65.2626 7.79002 8.84853
137 1 0.994025 5.23258 4.39075
7425 1 32.6757 30.8068 17.7642
139 1 2.8044 3.95386 2.16417
140 1 1.89921 2.67515 0.00525906
141 1 4.61478 2.67515 0.0052594
142 1 0.994025 9.06874 6.61964
297 1 65.2626 15.4623 13.3063
144 1 2.8044 7.79002 4.39075
145 1 1.89921 6.5113 2.16417
146 1 4.61479 6.5113 2.16417
147 1 3.7096 5.23258 0.00526169
148 1 6.42517 5.23258 0.00526095
149 1 0.994025 12.9049 8.84853
7409 1 32.6757 26.9707 15.5352
151 1 2.8044 11.6262 6.61964
152 1 1.89921 10.3475 4.39075
153 1 4.61478 10.3475 4.39075
154 1 3.70959 9.06874 2.16417
155 1 6.42517 9.06874 2.16417
156 1 5.51998 7.79002 0.00526339
157 1 8.23555 7.79002 0.00526137
158 1 0.994025 16.741 11.0774
312 1 0.0888692 19.2985 15.5352
160 1 2.8044 15.4623 8.84853
161 1 1.89921 14.1836 6.61964
162 1 4.61478 14.1836 6.61964
163 1 3.70959 12.9049 4.39075
164 1 6.42517 12.9049 4.39075
165 1 5.51998 11.6262 2.16417
166 1 8.23555 11.6262 2.16417
167 1 7.33036 10.3475 0.00526437
168 1 10.0459 10.3475 0.00526231
169 1 0.994025 20.5772 13.3063
437 1 65.2626 3.95387 11.0774
171 1 2.80441 19.2985 11.0774
172 1 1.89922 18.0198 8.84853
173 1 4.61478 18.0198 8.84853
174 1 3.70959 16.741 6.61964
175 1 6.42517 16.741 6.61964
176 1 5.51998 15.4623 4.39075
177 1 8.23555 15.4623 4.39075
178 1 7.33036 14.1836 2.16417
179 1 10.0459 14.1836 2.16417
180 1 9.14074 12.9049 0.00526221
181 1 11.8563 12.9049 0.00526169
182 1 0.994025 24.4134 15.5352
649 1 2.8044 0.117713 13.3063
184 1 2.8044 23.1346 13.3063
185 1 1.89922 21.8559 11.0774
186 1 4.61478 21.8559 11.0774
187 1 3.70959 20.5772 8.84853
188 1 6.42517 20.5772 8.84853
189 1 5.51997 19.2985 6.61964
190 1 8.23555 19.2985 6.61964
191 1 7.33036 18.0198 4.39075
192 1 10.0459 18.0198 4.39075
193 1 9.14074 16.741 2.16417
194 1 11.8563 16.741 2.16417
195 1 10.9511 15.4623 0.00526178
196 1 13.6667 15.4623 0.00525993
197 1 0.994025 28.2495 17.7641
890 1 2.8044 0.117713 17.7641
199 1 2.8044 26.9708 15.5352
200 1 1.89922 25.6921 13.3063
201 1 4.61478 25.6921 13.3063
202 1 3.70959 24.4134 11.0774
203 1 6.42516 24.4134 11.0774
204 1 5.51997 23.1346 8.84853
205 1 8.23554 23.1346 8.84853
206 1 7.33035 21.8559 6.61964
207 1 10.0459 21.8559 6.61964
208 1 9.14074 20.5772 4.39075
209 1 11.8563 20.5772 4.39075
210 1 10.9511 19.2985 2.16417
211 1 13.6667 19.2985 2.16417
212 1 12.7615 18.0198 0.00526242
213 1 15.4771 18.0198 0.00526191
214 1 2.8044 30.8069 17.7641
215 1 1.89921 29.5282 15.5352
216 1 4.61478 29.5282 15.5352
217 1 3.70959 28.2495 13.3063
218 1 6.42516 28.2495 13.3063
219 1 5.51997 26.9708 11.0774
220 1 8.23554 26.9708 11.0774
221 1 7.33035 25.6921 8.84853
222 1 10.0459 25.6921 8.84853
223 1 9.14074 24.4133 6.61964
224 1 11.8563 24.4133 6.61965
225 1 10.9511 23.1346 4.39075
226 1 13.6667 23.1346 4.39076
227 1 12.7615 21.8559 2.16418
228 1 15.4771 21.8559 2.16418
229 1 14.5719 20.5772 0.00526104
230 1 17.2874 20.5772 0.0052602
446 1 65.2626 7.79002 13.3063
232 1 7.33034 29.5282 11.0774
233 1 10.0459 29.5282 11.0774
234 1 9.14073 28.2495 8.84853
235 1 11.8563 28.2495 8.84854
236 1 10.9511 26.9708 6.61965
237 1 13.6667 26.9708 6.61965
238 1 12.7615 25.692 4.39076
239 1 15.477 25.692 4.39076
240 1 14.5719 24.4133 2.16418
241 1 17.2874 24.4133 2.16418
242 1 16.3822 23.1346 0.00526172
243 1 19.0978 23.1346 0.00526238
461 1 65.2626 11.6262 15.5352
478 1 65.2626 15.4623 17.7641
246 1 12.7614 29.5282 6.61965
247 1 15.477 29.5282 6.61965
248 1 14.5718 28.2495 4.39076
249 1 17.2874 28.2494 4.39075
250 1 16.3822 26.9707 2.16417
251 1 19.0978 26.9707 2.16416
252 1 18.1926 25.692 0.00525448
253 1 20.9082 25.692 0.00524466
329 1 65.2626 23.1346 17.7641
255 1 18.1926 29.5281 2.16414
256 1 20.9082 29.5281 2.16413
257 1 20.003 28.2494 0.00523148
258 1 22.7186 28.2494 0.00522104
348 1 65.2626 26.9708 19.993
260 1 0.994031 1.39643 6.61964
518 1 65.2626 23.1346 22.2218
1130 1 2.8044 0.117711 22.2218
263 1 0.994026 5.23258 8.84853
1137 1 5.51997 0.117713 17.7641
265 1 2.8044 3.95387 6.61964
266 1 1.89922 2.67515 4.39075
267 1 4.61478 2.67515 4.39075
268 1 3.70959 1.39643 2.16417
269 1 6.42517 1.39643 2.16417
5352 1 29.9601 30.8069 22.2219
497 1 65.2626 19.2985 19.993
272 1 0.994026 9.06874 11.0774
5315 1 24.529 30.8069 22.2219
274 1 2.8044 7.79002 8.84853
275 1 1.89921 6.5113 6.61964
276 1 4.61479 6.5113 6.61964
277 1 3.70959 5.23258 4.39075
278 1 6.42516 5.23258 4.39075
279 1 5.51997 3.95387 2.16417
280 1 8.23555 3.95386 2.16417
281 1 7.33036 2.67514 0.0052592
282 1 10.0459 2.67515 0.0052618
283 1 0.994025 12.9049 13.3063
540 1 65.2626 26.9708 24.4507
285 1 2.8044 11.6262 11.0774
286 1 1.89921 10.3475 8.84853
287 1 4.61478 10.3475 8.84853
288 1 3.70959 9.06874 6.61964
289 1 6.42517 9.06874 6.61964
290 1 5.51998 7.79002 4.39075
291 1 8.23555 7.79002 4.39075
292 1 7.33036 6.5113 2.16417
293 1 10.0459 6.5113 2.16417
294 1 9.14075 5.23258 0.00525974
295 1 11.8563 5.23258 0.00526299
296 1 0.994025 16.741 15.5352
1641 1 24.5289 0.117794 17.7641
298 1 2.8044 15.4623 13.3063
299 1 1.89921 14.1836 11.0774
300 1 4.61478 14.1836 11.0774
301 1 3.70959 12.9049 8.84853
302 1 6.42517 12.9049 8.84853
303 1 5.51998 11.6262 6.61964
304 1 8.23555 11.6262 6.61964
305 1 7.33036 10.3475 4.39075
306 1 10.0459 10.3475 4.39075
307 1 9.14074 9.06874 2.16417
308 1 11.8563 9.06874 2.16417
309 1 10.9511 7.79002 0.00526041
310 1 13.6667 7.79002 0.00526255
311 1 0.994025 20.5772 17.7641
7361 1 32.6757 11.6262 6.61965
313 1 2.8044 19.2985 15.5352
314 1 1.89921 18.0198 13.3063
315 1 4.61478 18.0198 13.3063
316 1 3.70959 16.741 11.0774
317 1 6.42517 16.741 11.0774
318 1 5.51998 15.4623 8.84853
319 1 8.23555 15.4623 8.84853
320 1 7.33036 14.1836 6.61964
321 1 10.0459 14.1836 6.61964
322 1 9.14074 12.9049 4.39075
323 1 11.8563 12.9049 4.39075
324 1 10.9511 11.6262 2.16417
325 1 13.6667 11.6262 2.16417
326 1 12.7615 10.3475 0.00526133
327 1 15.4771 10.3475 0.00526024
328 1 0.994025 24.4134 19.993
1138 1 8.23554 0.117714 17.7641
330 1 2.8044 23.1346 17.7641
331 1 1.89921 21.8559 15.5352
332 1 4.61478 21.8559 15.5352
333 1 3.70959 20.5772 13.3063
334 1 6.42517 20.5772 13.3063
335 1 5.51998 19.2985 11.0774
336 1 8.23555 19.2985 11.0774
337 1 7.33036 18.0198 8.84853
338 1 10.0459 18.0198 8.84853
339 1 9.14074 16.741 6.61964
340 1 11.8563 16.741 6.61964
341 1 10.9511 15.4623 4.39075
342 1 13.6667 15.4623 4.39075
343 1 12.7615 14.1836 2.16417
344 1 15.4771 14.1836 2.16417
345 1 14.5719 12.9049 0.0052595
346 1 17.2875 12.9049 0.00525598
347 1 0.994026 28.2495 22.2218
651 1 65.2626 3.95387 15.5352
349 1 2.8044 26.9708 19.993
350 1 1.89921 25.6921 17.7641
351 1 4.61478 25.6921 17.7641
352 1 3.70959 24.4134 15.5352
353 1 6.42517 24.4134 15.5352
354 1 5.51997 23.1346 13.3063
355 1 8.23555 23.1346 13.3063
356 1 7.33036 21.8559 11.0774
357 1 10.0459 21.8559 11.0774
358 1 9.14074 20.5772 8.84853
359 1 11.8563 20.5772 8.84853
360 1 10.9511 19.2985 6.61964
361 1 13.6667 19.2985 6.61964
362 1 12.7615 18.0198 4.39075
363 1 15.4771 18.0198 4.39075
364 1 14.5719 16.741 2.16417
365 1 17.2875 16.741 2.16417
366 1 16.3823 15.4623 0.00525677
367 1 19.0978 15.4623 0.00525546
368 1 2.8044 30.8069 22.2218
369 1 1.89921 29.5282 19.993
370 1 4.61478 29.5282 19.993
371 1 3.70959 28.2495 17.7641
372 1 6.42516 28.2495 17.7641
373 1 5.51997 26.9708 15.5352
374 1 8.23554 26.9708 15.5352
375 1 7.33035 25.6921 13.3063
376 1 10.0459 25.6921 13.3063
377 1 9.14073 24.4134 11.0774
378 1 11.8563 24.4133 11.0774
379 1 10.9511 23.1346 8.84853
380 1 13.6667 23.1346 8.84853
381 1 12.7615 21.8559 6.61964
382 1 15.4771 21.8559 6.61965
383 1 14.5719 20.5772 4.39076
384 1 17.2874 20.5772 4.39076
385 1 16.3823 19.2985 2.16418
386 1 19.0978 19.2985 2.16418
387 1 18.1926 18.0198 0.00525988
388 1 20.9082 18.0197 0.00526392
389 1 8.23554 30.8069 17.7641
390 1 7.33035 29.5282 15.5352
391 1 10.0459 29.5282 15.5352
392 1 9.14073 28.2495 13.3063
393 1 11.8563 28.2495 13.3063
394 1 10.9511 26.9708 11.0774
395 1 13.6667 26.9708 11.0774
396 1 12.7615 25.692 8.84854
397 1 15.477 25.692 8.84854
398 1 14.5719 24.4133 6.61965
399 1 17.2874 24.4133 6.61965
400 1 16.3822 23.1346 4.39076
401 1 19.0978 23.1346 4.39076
402 1 18.1926 21.8559 2.16418
403 1 20.9082 21.8559 2.16418
404 1 20.003 20.5772 0.00526436
405 1 22.7186 20.5772 0.00526441
660 1 65.2626 7.79002 17.7641
407 1 12.7615 29.5282 11.0774
408 1 15.477 29.5282 11.0774
409 1 14.5718 28.2495 8.84854
410 1 17.2874 28.2494 8.84855
411 1 16.3822 26.9707 6.61965
412 1 19.0978 26.9707 6.61965
413 1 18.1926 25.692 4.39075
414 1 20.9082 25.692 4.39075
415 1 20.003 24.4133 2.16417
416 1 22.7186 24.4133 2.16416
417 1 21.8134 23.1346 0.00525764
418 1 24.529 23.1346 0.00525273
7538 1 32.6757 23.1346 17.7641
420 1 18.1926 29.5281 6.61964
421 1 20.9081 29.5281 6.61963
422 1 20.003 28.2494 4.39074
423 1 22.7185 28.2494 4.39072
424 1 21.8134 26.9707 2.16415
425 1 24.529 26.9707 2.16413
426 1 23.6238 25.692 0.00523741
427 1 26.3394 25.692 0.00522917
675 1 65.2626 11.6262 19.993
429 1 23.6238 29.5281 2.16411
430 1 26.3394 29.5282 2.1641
431 1 25.4342 28.2494 0.00520898
432 1 28.1498 28.2495 0.00519024
433 1 0.994028 1.39643 11.0774
696 1 65.2626 15.4623 22.2218
5314 1 21.8134 30.8069 22.2219
436 1 0.994026 5.23258 13.3063
1344 1 5.51997 0.117714 22.2218
438 1 2.8044 3.95387 11.0774
439 1 1.89922 2.67515 8.84853
440 1 4.61478 2.67515 8.84853
441 1 3.70959 1.39643 6.61964
442 1 6.42516 1.39643 6.61964
5260 1 27.2445 30.8067 13.3064
5249 1 21.8133 30.8069 17.7642
445 1 0.994025 9.06874 15.5352
718 1 65.2626 19.2985 24.4507
447 1 2.8044 7.79002 13.3063
448 1 1.89921 6.5113 11.0774
449 1 4.61478 6.5113 11.0774
450 1 3.70959 5.23258 8.84853
451 1 6.42516 5.23258 8.84853
452 1 5.51997 3.95387 6.61964
453 1 8.23554 3.95387 6.61964
454 1 7.33035 2.67514 4.39075
455 1 10.0459 2.67515 4.39076
456 1 9.14074 1.39643 2.16418
457 1 11.8563 1.39644 2.16418
5242 1 16.3822 30.8069 22.2219
4065 1 0.0888727 30.8069 8.84853
460 1 0.994025 12.9049 17.7641
7307 1 32.6757 26.9706 11.0774
462 1 2.8044 11.6262 15.5352
463 1 1.89921 10.3475 13.3063
464 1 4.61478 10.3475 13.3063
465 1 3.70959 9.06874 11.0774
466 1 6.42517 9.06874 11.0774
467 1 5.51998 7.79002 8.84853
468 1 8.23555 7.79002 8.84853
469 1 7.33036 6.5113 6.61964
470 1 10.0459 6.5113 6.61964
471 1 9.14074 5.23258 4.39075
472 1 11.8563 5.23259 4.39076
473 1 10.9511 3.95387 2.16418
474 1 13.6667 3.95387 2.16418
475 1 12.7615 2.67516 0.00526849
476 1 15.477 2.67517 0.00526799
477 1 0.994025 16.741 19.993
1345 1 8.23555 0.117713 22.2218
479 1 2.8044 15.4623 17.7641
480 1 1.89921 14.1836 15.5352
481 1 4.61478 14.1836 15.5352
482 1 3.70959 12.9049 13.3063
483 1 6.42517 12.9049 13.3063
484 1 5.51998 11.6262 11.0774
485 1 8.23555 11.6262 11.0774
486 1 7.33036 10.3475 8.84853
487 1 10.0459 10.3475 8.84853
488 1 9.14074 9.06874 6.61964
489 1 11.8563 9.06874 6.61964
490 1 10.9511 7.79002 4.39075
491 1 13.6667 7.79003 4.39075
492 1 12.7615 6.5113 2.16418
493 1 15.4771 6.51131 2.16418
494 1 14.5719 5.23259 0.00526748
495 1 17.2874 5.23261 0.00527016
496 1 0.994025 20.5772 22.2218
1734 1 31.7705 10.3475 22.2218
498 1 2.8044 19.2985 19.993
499 1 1.89921 18.0198 17.7641
500 1 4.61478 18.0198 17.7641
501 1 3.70959 16.741 15.5352
502 1 6.42517 16.741 15.5352
503 1 5.51998 15.4623 13.3063
504 1 8.23555 15.4623 13.3063
505 1 7.33036 14.1836 11.0774
506 1 10.0459 14.1836 11.0774
507 1 9.14074 12.9049 8.84853
508 1 11.8563 12.9049 8.84853
509 1 10.9511 11.6262 6.61964
510 1 13.6667 11.6262 6.61964
511 1 12.7615 10.3475 4.39075
512 1 15.4771 10.3475 4.39075
513 1 14.5719 9.06874 2.16417
514 1 17.2874 9.06874 2.16418
515 1 16.3823 7.79003 0.00526493
516 1 19.0978 7.79004 0.00527109
517 1 0.994025 24.4134 24.4507
1733 1 29.0549 10.3475 22.2218
519 1 2.8044 23.1346 22.2218
520 1 1.89921 21.8559 19.993
521 1 4.61478 21.8559 19.993
522 1 3.70959 20.5772 17.7641
523 1 6.42517 20.5772 17.7641
524 1 5.51998 19.2985 15.5352
525 1 8.23555 19.2985 15.5352
526 1 7.33036 18.0198 13.3063
527 1 10.0459 18.0198 13.3063
528 1 9.14074 16.741 11.0774
529 1 11.8563 16.741 11.0774
530 1 10.9511 15.4623 8.84853
531 1 13.6667 15.4623 8.84853
532 1 12.7615 14.1836 6.61964
533 1 15.4771 14.1836 6.61964
534 1 14.5719 12.9049 4.39075
535 1 17.2875 12.9049 4.39075
536 1 16.3823 11.6262 2.16417
537 1 19.0978 11.6262 2.16417
538 1 18.1926 10.3475 0.00526313
539 1 20.9082 10.3475 0.00526726
1732 1 29.9601 11.6262 24.4507
541 1 2.8044 26.9708 24.4507
542 1 1.89921 25.6921 22.2218
543 1 4.61478 25.6921 22.2218
544 1 3.70959 24.4134 19.993
545 1 6.42517 24.4134 19.993
546 1 5.51998 23.1346 17.7641
547 1 8.23555 23.1346 17.7641
548 1 7.33036 21.8559 15.5352
549 1 10.0459 21.8559 15.5352
550 1 9.14074 20.5772 13.3063
551 1 11.8563 20.5772 13.3063
552 1 10.9511 19.2985 11.0774
553 1 13.6667 19.2985 11.0774
554 1 12.7615 18.0198 8.84853
555 1 15.4771 18.0198 8.84853
556 1 14.5719 16.741 6.61964
557 1 17.2875 16.741 6.61964
558 1 16.3823 15.4623 4.39075
559 1 19.0978 15.4623 4.39075
560 1 18.1926 14.1836 2.16417
561 1 20.9082 14.1836 2.16417
562 1 20.003 12.9049 0.00525902
563 1 22.7186 12.9049 0.00526183
564 1 1.89921 29.5282 24.4507
565 1 4.61478 29.5282 24.4507
566 1 3.70959 28.2495 22.2218
567 1 6.42517 28.2495 22.2218
568 1 5.51998 26.9708 19.993
569 1 8.23555 26.9708 19.993
570 1 7.33036 25.6921 17.7641
571 1 10.0459 25.6921 17.7641
572 1 9.14074 24.4134 15.5352
573 1 11.8563 24.4133 15.5352
574 1 10.9511 23.1346 13.3063
575 1 13.6667 23.1346 13.3063
576 1 12.7615 21.8559 11.0774
577 1 15.4771 21.8559 11.0774
578 1 14.5719 20.5772 8.84853
579 1 17.2874 20.5772 8.84853
580 1 16.3823 19.2985 6.61964
581 1 19.0978 19.2985 6.61964
582 1 18.1926 18.0198 4.39075
583 1 20.9082 18.0197 4.39076
584 1 20.003 16.741 2.16417
585 1 22.7186 16.741 2.16418
586 1 21.8134 15.4623 0.00525753
587 1 24.529 15.4623 0.00526061
588 1 7.33035 29.5282 19.993
589 1 10.0459 29.5282 19.993
590 1 9.14073 28.2495 17.7641
591 1 11.8563 28.2495 17.7641
592 1 10.9511 26.9708 15.5352
593 1 13.6667 26.9708 15.5352
594 1 12.7615 25.6921 13.3063
595 1 15.477 25.692 13.3063
596 1 14.5719 24.4133 11.0774
597 1 17.2874 24.4133 11.0774
598 1 16.3822 23.1346 8.84854
599 1 19.0978 23.1346 8.84854
600 1 18.1926 21.8559 6.61965
601 1 20.9082 21.8559 6.61965
602 1 20.003 20.5772 4.39076
603 1 22.7186 20.5772 4.39076
604 1 21.8134 19.2985 2.16417
605 1 24.529 19.2984 2.16418
606 1 23.6238 18.0197 0.00526385
607 1 26.3394 18.0197 0.00526438
608 1 12.7615 29.5282 15.5352
609 1 15.477 29.5282 15.5352
610 1 14.5718 28.2495 13.3063
611 1 17.2874 28.2495 13.3063
612 1 16.3822 26.9707 11.0774
613 1 19.0978 26.9707 11.0774
614 1 18.1926 25.692 8.84855
615 1 20.9082 25.692 8.84854
616 1 20.003 24.4133 6.61965
617 1 22.7186 24.4133 6.61965
618 1 21.8134 23.1346 4.39076
619 1 24.529 23.1346 4.39075
620 1 23.6238 21.8559 2.16418
621 1 26.3394 21.8559 2.16417
622 1 25.4342 20.5771 0.00526472
623 1 28.1497 20.5771 0.00525847
624 1 18.1926 29.5281 11.0774
625 1 20.9081 29.5281 11.0775
626 1 20.003 28.2494 8.84855
627 1 22.7185 28.2494 8.84855
628 1 21.8134 26.9707 6.61964
629 1 24.5289 26.9706 6.61963
630 1 23.6238 25.692 4.39073
631 1 26.3394 25.692 4.39073
632 1 25.4342 24.4133 2.16416
633 1 28.1498 24.4133 2.16415
634 1 27.2446 23.1346 0.00524653
635 1 29.9601 23.1346 0.00524369
636 1 23.6237 29.528 6.61962
637 1 26.3393 29.528 6.61962
638 1 25.4341 28.2494 4.3907
639 1 28.1497 28.2494 4.39068
640 1 27.2446 26.9707 2.16411
641 1 29.9602 26.9707 2.1641
642 1 29.055 25.692 0.0052216
643 1 31.7705 25.6921 0.00521534
644 1 29.055 29.5282 2.16408
645 1 31.7705 29.5283 2.16405
646 1 30.8653 28.2496 0.0051649
647 1 0.994027 1.39643 15.5352
1753 1 30.8653 1.39645 24.4508
1752 1 30.8653 9.06874 24.4507
650 1 0.994026 5.23258 17.7641
1751 1 30.8653 5.2326 22.2219
652 1 2.8044 3.95387 15.5352
653 1 1.89922 2.67515 13.3063
654 1 4.61478 2.67515 13.3063
655 1 3.70959 1.39643 11.0774
656 1 6.42516 1.39643 11.0774
5130 1 19.0978 30.8069 17.7641
5011 1 27.2445 30.8068 4.39072
659 1 0.994026 9.06874 19.993
1731 1 27.2446 11.6262 24.4507
661 1 2.8044 7.79002 17.7641
662 1 1.89921 6.5113 15.5352
663 1 4.61478 6.5113 15.5352
664 1 3.70959 5.23258 13.3063
665 1 6.42517 5.23258 13.3063
666 1 5.51997 3.95387 11.0774
667 1 8.23554 3.95387 11.0774
668 1 7.33035 2.67515 8.84853
669 1 10.0459 2.67516 8.84853
670 1 9.14073 1.39644 6.61964
671 1 11.8563 1.39644 6.61965
1750 1 31.7705 6.51131 24.4507
4991 1 21.8133 30.8067 8.84856
674 1 0.994025 12.9049 22.2218
1749 1 29.0549 6.51131 24.4507
676 1 2.8044 11.6262 19.993
677 1 1.89921 10.3475 17.7641
678 1 4.61478 10.3475 17.7641
679 1 3.70959 9.06874 15.5352
680 1 6.42517 9.06874 15.5352
681 1 5.51998 7.79002 13.3063
682 1 8.23555 7.79002 13.3063
683 1 7.33036 6.5113 11.0774
684 1 10.0459 6.5113 11.0774
685 1 9.14074 5.23259 8.84853
686 1 11.8563 5.23259 8.84853
687 1 10.9511 3.95387 6.61964
688 1 13.6667 3.95387 6.61965
689 1 12.7615 2.67516 4.39076
690 1 15.4771 2.67517 4.39076
691 1 14.5719 1.39645 2.16418
692 1 17.2874 1.39646 2.16417
1748 1 30.8653 1.3965 19.993
4976 1 19.0977 30.8068 13.3064
695 1 0.994025 16.741 24.4507
1730 1 30.8653 5.23263 17.7641
697 1 2.8044 15.4623 22.2218
698 1 1.89921 14.1836 19.993
699 1 4.61478 14.1836 19.993
700 1 3.70959 12.9049 17.7641
701 1 6.42517 12.9049 17.7641
702 1 5.51998 11.6262 15.5352
703 1 8.23555 11.6262 15.5352
704 1 7.33036 10.3475 13.3063
705 1 10.0459 10.3475 13.3063
706 1 9.14074 9.06874 11.0774
707 1 11.8563 9.06874 11.0774
708 1 10.9511 7.79002 8.84853
709 1 13.6667 7.79003 8.84853
710 1 12.7615 6.51131 6.61964
711 1 15.4771 6.51131 6.61965
712 1 14.5719 5.23259 4.39076
713 1 17.2874 5.2326 4.39076
714 1 16.3822 3.95389 2.16418
715 1 19.0978 3.95388 2.16418
716 1 18.1926 2.67518 0.00526181
717 1 20.9082 2.67517 0.00524559
1729 1 31.7705 6.51132 19.993
719 1 2.8044 19.2985 24.4507
720 1 1.89921 18.0198 22.2218
721 1 4.61478 18.0198 22.2218
722 1 3.70959 16.741 19.993
723 1 6.42517 16.741 19.993
724 1 5.51998 15.4623 17.7641
725 1 8.23555 15.4623 17.7641
726 1 7.33036 14.1836 15.5352
727 1 10.0459 14.1836 15.5352
728 1 9.14074 12.9049 13.3063
729 1 11.8563 12.9049 13.3063
730 1 10.9511 11.6262 11.0774
731 1 13.6667 11.6262 11.0774
732 1 12.7615 10.3475 8.84853
733 1 15.4771 10.3475 8.84853
734 1 14.5719 9.06875 6.61964
735 1 17.2874 9.06875 6.61965
736 1 16.3823 7.79003 4.39076
737 1 19.0978 7.79003 4.39076
738 1 18.1926 6.51132 2.16418
739 1 20.9082 6.51132 2.16418
740 1 20.003 5.23261 0.00526547
741 1 22.7186 5.2326 0.0052525
742 1 1.89921 21.8559 24.4507
743 1 4.61478 21.8559 24.4507
744 1 3.70959 20.5772 22.2218
745 1 6.42517 20.5772 22.2218
746 1 5.51998 19.2985 19.993
747 1 8.23555 19.2985 19.993
748 1 7.33036 18.0198 17.7641
749 1 10.0459 18.0198 17.7641
750 1 9.14074 16.741 15.5352
751 1 11.8563 16.741 15.5352
752 1 10.9511 15.4623 13.3063
753 1 13.6667 15.4623 13.3063
754 1 12.7615 14.1836 11.0774
755 1 15.4771 14.1836 11.0774
756 1 14.5719 12.9049 8.84853
757 1 17.2875 12.9049 8.84853
758 1 16.3823 11.6262 6.61964
759 1 19.0978 11.6262 6.61964
760 1 18.1926 10.3475 4.39076
761 1 20.9082 10.3475 4.39076
762 1 20.003 9.06875 2.16418
763 1 22.7186 9.06875 2.16418
764 1 21.8134 7.79004 0.00526938
765 1 24.529 7.79003 0.00526069
766 1 3.70959 24.4134 24.4507
767 1 6.42517 24.4134 24.4507
768 1 5.51998 23.1346 22.2218
769 1 8.23555 23.1346 22.2218
770 1 7.33036 21.8559 19.993
771 1 10.0459 21.8559 19.993
772 1 9.14074 20.5772 17.7641
773 1 11.8563 20.5772 17.7641
774 1 10.9511 19.2985 15.5352
775 1 13.6667 19.2985 15.5352
776 1 12.7615 18.0198 13.3063
777 1 15.4771 18.0198 13.3063
778 1 14.5719 16.741 11.0774
779 1 17.2875 16.741 11.0774
780 1 16.3823 15.4623 8.84853
781 1 19.0978 15.4623 8.84853
782 1 18.1926 14.1836 6.61964
783 1 20.9082 14.1836 6.61964
784 1 20.003 12.9049 4.39075
785 1 22.7186 12.9049 4.39076
786 1 21.8134 11.6262 2.16418
787 1 24.529 11.6262 2.16417
788 1 23.6238 10.3475 0.00526882
789 1 26.3394 10.3475 0.00526461
790 1 5.51998 26.9708 24.4507
791 1 8.23555 26.9708 24.4507
792 1 7.33036 25.6921 22.2218
793 1 10.0459 25.6921 22.2218
794 1 9.14074 24.4134 19.993
795 1 11.8563 24.4134 19.993
796 1 10.9511 23.1346 17.7641
797 1 13.6667 23.1346 17.7641
798 1 12.7615 21.8559 15.5352
799 1 15.4771 21.8559 15.5352
800 1 14.5719 20.5772 13.3063
801 1 17.2874 20.5772 13.3063
802 1 16.3823 19.2985 11.0774
803 1 19.0978 19.2985 11.0774
804 1 18.1926 18.0198 8.84853
805 1 20.9082 18.0198 8.84853
806 1 20.003 16.741 6.61964
807 1 22.7186 16.741 6.61964
808 1 21.8134 15.4623 4.39075
809 1 24.529 15.4623 4.39076
810 1 23.6238 14.1836 2.16418
811 1 26.3394 14.1836 2.16418
812 1 25.4342 12.9049 0.00526519
813 1 28.1497 12.9049 0.00526521
814 1 7.33036 29.5282 24.4507
815 1 10.0459 29.5282 24.4507
816 1 9.14074 28.2495 22.2218
817 1 11.8563 28.2495 22.2218
818 1 10.9511 26.9708 19.993
819 1 13.6667 26.9708 19.993
820 1 12.7615 25.6921 17.7641
821 1 15.4771 25.6921 17.7641
822 1 14.5719 24.4133 15.5352
823 1 17.2874 24.4133 15.5352
824 1 16.3823 23.1346 13.3063
825 1 19.0978 23.1346 13.3063
826 1 18.1926 21.8559 11.0774
827 1 20.9082 21.8559 11.0774
828 1 20.003 20.5772 8.84853
829 1 22.7186 20.5772 8.84854
830 1 21.8134 19.2985 6.61965
831 1 24.529 19.2985 6.61965
832 1 23.6238 18.0197 4.39076
833 1 26.3394 18.0197 4.39076
834 1 25.4342 16.741 2.16418
835 1 28.1497 16.741 2.16418
836 1 27.2446 15.4623 0.00526297
837 1 29.9601 15.4623 0.00526917
838 1 10.9511 30.8069 22.2218
839 1 13.6667 30.8069 22.2219
840 1 12.7615 29.5282 19.993
841 1 15.4771 29.5282 19.993
842 1 14.5719 28.2495 17.7641
843 1 17.2874 28.2495 17.7641
844 1 16.3822 26.9708 15.5352
845 1 19.0978 26.9707 15.5352
846 1 18.1926 25.692 13.3063
847 1 20.9082 25.692 13.3063
848 1 20.003 24.4133 11.0774
849 1 22.7186 24.4133 11.0774
850 1 21.8134 23.1346 8.84854
851 1 24.529 23.1346 8.84855
852 1 23.6238 21.8559 6.61965
853 1 26.3394 21.8559 6.61965
854 1 25.4342 20.5772 4.39076
855 1 28.1497 20.5772 4.39076
856 1 27.2446 19.2984 2.16418
857 1 29.9601 19.2984 2.16418
858 1 29.0549 18.0197 0.00526535
859 1 31.7705 18.0197 0.00526934
901 1 65.2626 7.79002 22.2218
861 1 18.1926 29.5282 15.5352
862 1 20.9082 29.5281 15.5352
863 1 20.003 28.2494 13.3063
864 1 22.7185 28.2494 13.3064
865 1 21.8134 26.9707 11.0774
866 1 24.5289 26.9707 11.0774
867 1 23.6238 25.692 8.84855
868 1 26.3393 25.6919 8.84854
869 1 25.4342 24.4133 6.61964
870 1 28.1497 24.4132 6.61964
871 1 27.2446 23.1346 4.39074
872 1 29.9601 23.1346 4.39074
873 1 29.0549 21.8559 2.16416
874 1 31.7705 21.8559 2.16416
875 1 30.8653 20.5772 0.00525756
876 1 23.6237 29.528 11.0775
877 1 26.3393 29.528 11.0775
878 1 25.4341 28.2493 8.84854
879 1 28.1497 28.2493 8.84853
880 1 27.2445 26.9706 6.61961
881 1 29.9601 26.9706 6.6196
882 1 29.0549 25.692 4.39072
883 1 31.7705 25.692 4.39071
884 1 30.8653 24.4133 2.16414
885 1 29.0549 29.528 6.61962
886 1 31.7705 29.528 6.61961
887 1 30.8653 28.2494 4.39066
888 1 0.994026 1.39643 19.993
1747 1 31.7705 2.67518 22.2219
915 1 65.2626 11.6262 24.4507
891 1 0.994026 5.23258 22.2218
1746 1 29.0549 2.67518 22.2219
893 1 2.8044 3.95387 19.993
894 1 1.89921 2.67515 17.7641
895 1 4.61478 2.67515 17.7641
896 1 3.70959 1.39643 15.5352
897 1 6.42516 1.39643 15.5352
4964 1 13.6667 30.8069 17.7641
4963 1 10.9511 30.8069 17.7641
900 1 0.994025 9.06874 24.4507
1745 1 29.9601 3.95388 24.4507
902 1 2.8044 7.79002 22.2218
903 1 1.89921 6.5113 19.993
904 1 4.61478 6.5113 19.993
905 1 3.70959 5.23258 17.7641
906 1 6.42517 5.23258 17.7641
907 1 5.51997 3.95387 15.5352
908 1 8.23555 3.95387 15.5352
909 1 7.33035 2.67515 13.3063
910 1 10.0459 2.67515 13.3063
911 1 9.14073 1.39644 11.0774
912 1 11.8563 1.39644 11.0774
4956 1 8.23555 30.8069 22.2218
4955 1 5.51997 30.8069 22.2218
1744 1 27.2446 3.95388 24.4507
916 1 2.8044 11.6262 24.4507
917 1 1.89921 10.3475 22.2218
918 1 4.61478 10.3475 22.2218
919 1 3.70959 9.06874 19.993
920 1 6.42517 9.06874 19.993
921 1 5.51998 7.79002 17.7641
922 1 8.23555 7.79002 17.7641
923 1 7.33036 6.5113 15.5352
924 1 10.0459 6.5113 15.5352
925 1 9.14074 5.23259 13.3063
926 1 11.8563 5.23259 13.3063
927 1 10.9511 3.95387 11.0774
928 1 13.6667 3.95388 11.0774
929 1 12.7615 2.67515 8.84853
930 1 15.477 2.67517 8.84854
931 1 14.5719 1.39645 6.61965
932 1 17.2874 1.39646 6.61964
1728 1 29.0549 6.51132 19.993
4796 1 21.8133 30.8068 4.39071
935 1 1.89921 14.1836 24.4507
936 1 4.61478 14.1836 24.4507
937 1 3.70959 12.9049 22.2218
938 1 6.42517 12.9049 22.2218
939 1 5.51998 11.6262 19.993
940 1 8.23555 11.6262 19.993
941 1 7.33036 10.3475 17.7641
942 1 10.0459 10.3475 17.7641
943 1 9.14074 9.06874 15.5352
944 1 11.8563 9.06874 15.5352
945 1 10.9511 7.79002 13.3063
946 1 13.6667 7.79003 13.3063
947 1 12.7615 6.51131 11.0774
948 1 15.4771 6.51131 11.0774
949 1 14.5719 5.2326 8.84853
950 1 17.2874 5.2326 8.84854
951 1 16.3822 3.95389 6.61965
952 1 19.0978 3.9539 6.61964
953 1 18.1926 2.67518 4.39075
954 1 20.9082 2.67518 4.39073
955 1 20.003 1.39644 2.16415
956 1 22.7186 1.39642 2.16412
1131 1 65.2626 3.95387 24.4507
4511 1 65.2626 30.8069 17.7641
959 1 3.70959 16.741 24.4507
960 1 6.42517 16.741 24.4507
961 1 5.51998 15.4623 22.2218
962 1 8.23555 15.4623 22.2218
963 1 7.33036 14.1836 19.993
964 1 10.0459 14.1836 19.993
965 1 9.14074 12.9049 17.7641
966 1 11.8563 12.9049 17.7641
967 1 10.9511 11.6262 15.5352
968 1 13.6667 11.6262 15.5352
969 1 12.7615 10.3475 13.3063
970 1 15.4771 10.3475 13.3063
971 1 14.5719 9.06874 11.0774
972 1 17.2874 9.06875 11.0774
973 1 16.3823 7.79003 8.84853
974 1 19.0978 7.79004 8.84854
975 1 18.1926 6.51132 6.61965
976 1 20.9082 6.51133 6.61964
977 1 20.003 5.23261 4.39075
978 1 22.7186 5.23261 4.39074
979 1 21.8134 3.95388 2.16415
980 1 24.529 3.95385 2.16413
981 1 23.6238 2.67513 0.00522565
982 1 26.3394 2.67506 0.0051964
983 1 5.51998 19.2985 24.4507
984 1 8.23555 19.2985 24.4507
985 1 7.33036 18.0198 22.2218
986 1 10.0459 18.0198 22.2218
987 1 9.14074 16.741 19.993