ITEM: TIMESTEP
40
ITEM: NUMBER OF ATOMS
1633
ITEM: BOX BOUNDS pp pp pp
6.4789919303168519e-02 3.2610913208599996e+01
6.2861870210609724e-02 2.0475103694103833e+01
-2.2396643329627281e+01 5.7969443180013975e+01
ITEM: ATOMS id type x y z
1 1 0.823937 12.82 -0.0216035
2 1 0.654188 16.6472 2.14205
96 1 14.8905 1.34263 2.13301
4 1 2.51841 15.372 -0.0223088
336 1 14.7218 5.17353 4.36902
6 1 2.34858 19.1993 2.14152
7 1 1.50101 17.9231 -0.0226361
8 1 4.21254 17.9241 -0.0231491
9 1 1.16227 5.16586 -0.0219636
10 1 0.993273 8.99281 2.14297
11 1 0.145663 7.71694 -0.0214292
12 1 2.85746 7.71808 -0.0217157
318 1 15.7367 2.62188 4.3648
14 1 2.68869 11.5452 2.14274
15 1 1.84082 10.269 -0.0214403
16 1 4.55277 10.2703 -0.0218312
17 1 1.67165 14.0962 2.14249
18 1 4.38366 14.0974 2.14212
19 1 3.53577 12.8211 -0.0219177
20 1 6.24767 12.8224 -0.0224414
21 1 3.3661 16.6483 2.14172
22 1 6.07793 16.6494 2.14103
23 1 5.23006 15.3731 -0.0228661
24 1 7.94165 15.3741 -0.0238083
25 1 5.06034 19.2004 2.14089
26 1 7.772 19.2014 2.13973
27 1 6.92395 17.9251 -0.0241083
28 1 9.63529 17.9259 -0.0257435
29 1 1.33143 1.33822 2.1417
30 1 0.483934 20.4744 -0.0226588
31 1 3.19545 0.0631932 -0.0230411
32 1 0.31459 3.88942 2.1422
33 1 3.02648 3.89051 2.14187
34 1 2.17878 2.61458 -0.0225857
35 1 4.89034 2.61573 -0.0231451
36 1 2.00986 6.44166 2.14255
37 1 4.72189 6.44295 2.14204
38 1 3.87394 5.16701 -0.0223538
39 1 6.58571 5.16835 -0.0230189
40 1 3.70538 8.99408 2.14259
41 1 6.41751 8.99551 2.14205
42 1 5.56937 7.71945 -0.0222142
43 1 8.28138 7.72094 -0.0228989
44 1 5.4008 11.5465 2.14232
45 1 8.11299 11.548 2.14175
46 1 7.26481 10.2718 -0.0223675
47 1 9.97694 10.2732 -0.0230719
48 1 7.0957 14.0987 2.14151
49 1 9.80784 14.1 2.14058
50 1 8.95963 12.8236 -0.0231965
51 1 11.6717 12.8246 -0.0243149
52 1 8.78973 16.6505 2.13983
53 1 11.5015 16.6512 2.1378
54 1 10.6532 15.3748 -0.0253692
55 1 13.365 15.3744 -0.0279447
56 1 10.4836 19.2022 2.13775
57 1 13.1952 19.2023 2.13461
58 1 12.3468 17.926 -0.028413
59 1 15.059 17.9247 -0.0323085
60 1 4.04322 1.33931 2.14122
61 1 6.75495 1.34045 2.14032
62 1 5.90689 0.0642725 -0.0238245
63 1 8.6183 0.065305 -0.025166
64 1 5.73835 3.89174 2.14121
65 1 8.45028 3.89298 2.14017
66 1 7.60193 2.61697 -0.0240985
67 1 10.3136 2.61816 -0.0255931
68 1 7.43396 6.44434 2.1413
69 1 10.1461 6.44576 2.14026
70 1 9.29757 5.16976 -0.0240152
71 1 12.0096 5.17115 -0.0255195
72 1 9.12972 8.99702 2.14136
73 1 11.842 8.99858 2.14044
74 1 10.9935 7.72249 -0.0238631
75 1 13.7058 7.72389 -0.0253893
76 1 10.8253 11.5495 2.14101
77 1 13.5377 11.5507 2.14004
78 1 12.6892 10.2745 -0.0240826
79 1 15.4017 10.2751 -0.0254511
80 1 12.5201 14.1011 2.13918
81 1 15.2325 14.1009 2.13718
82 1 14.3841 12.8246 -0.0259782
83 1 14.2131 16.6507 2.13451
84 1 9.46668 1.34149 2.13881
85 1 12.1785 1.34224 2.13644
86 1 11.3298 0.0660473 -0.0272991
87 1 14.0419 0.0660604 -0.0303694
88 1 11.1623 3.89416 2.13856
89 1 13.8745 3.8954 2.13615
90 1 13.0256 2.61909 -0.0278009
91 1 15.7383 2.61972 -0.0307879
92 1 12.8584 6.44723 2.13868
93 1 15.5708 6.44844 2.13633
94 1 14.722 5.1724 -0.0278922
95 1 14.5544 8.99975 2.13906
819 1 16.0774 15.3724 -0.0315132
97 1 0.824815 12.82 4.37546
100 1 2.51984 15.3723 4.37491
103 1 1.50206 17.9233 4.37449
104 1 4.21402 17.9244 4.37411
105 1 1.16199 5.16511 4.3751
107 1 0.145414 7.7162 4.37558
108 1 2.85769 7.71757 4.37524
112 1 1.84133 10.2688 4.37552
113 1 4.55355 10.2702 4.37513
119 1 3.53698 12.8213 4.37519
120 1 6.2492 12.8228 4.37475
127 1 5.23191 15.3736 4.37448
915 1 16.0808 15.3771 4.36892
128 1 7.94406 15.3751 4.37376
131 1 6.9258 17.9257 4.37329
132 1 9.6374 17.9269 4.37186
134 1 0.484234 20.4742 4.37435
135 1 3.19623 0.063117 4.37408
139 1 2.17893 2.61412 4.37448
140 1 4.89083 2.61537 4.37395
146 1 3.87416 5.16645 4.37466
147 1 6.58621 5.16786 4.37394
155 1 5.56988 7.71904 4.3747
156 1 8.28201 7.7206 4.37398
166 1 7.26578 10.2718 4.37461
167 1 9.97803 10.2735 4.37399
178 1 8.96153 12.8245 4.37417
179 1 11.674 12.8264 4.37347
186 1 10.6563 15.3767 4.37268
187 1 13.3686 15.3779 4.3712
190 1 12.3486 17.9276 4.36946
191 1 15.0591 17.9268 4.36528
202 1 5.90794 0.0643063 4.37338
203 1 8.61938 0.0654876 4.37211
213 1 7.60253 2.61666 4.37302
214 1 10.314 2.61794 4.37147
226 1 9.29817 5.16933 4.37286
227 1 12.01 5.17101 4.37127
241 1 10.9941 7.72233 4.37301
242 1 13.706 7.72452 4.3717
257 1 12.6903 10.2756 4.37325
258 1 15.4025 10.2767 4.37229
269 1 14.3865 12.8278 4.37279
300 1 11.3305 0.0664951 4.36994
301 1 14.0412 0.0671564 4.36623
317 1 13.0254 2.61934 4.36908
821 1 15.9067 19.2008 2.1301
829 1 16.2501 11.5507 2.139
1249 1 15.9127 19.1994 28.963
98 1 0.656488 16.6471 6.60997
672 1 14.8957 1.33879 28.9628
1232 1 16.082 15.372 26.7282
671 1 14.5563 8.99307 28.963
102 1 2.35005 19.1992 6.60943
1153 1 15.9128 19.1997 24.493
1136 1 16.0818 15.372 22.2587
1059 1 15.9132 19.2008 20.0226
106 1 0.993698 8.99198 6.61054
1045 1 16.0805 15.3721 17.7902
984 1 15.9131 19.2035 15.5525
109 1 0.826711 12.8191 8.84556
624 1 5.9119 0.0630998 26.7268
111 1 2.68988 11.5448 6.61039
974 1 16.0889 15.3828 13.3128
937 1 15.8946 19.2071 11.0793
114 1 0.659391 16.6464 11.0808
670 1 14.7261 5.16623 26.7276
116 1 2.52231 15.372 8.84528
117 1 1.67351 14.096 6.61032
118 1 4.38559 14.0975 6.61002
931 1 16.0871 15.3845 8.8446
917 1 15.9023 19.2051 6.59705
669 1 15.5735 6.44159 28.9631
122 1 2.3531 19.1989 11.0805
123 1 1.50527 17.923 8.84505
124 1 4.21652 17.9244 8.84481
125 1 3.3683 16.6484 6.60975
126 1 6.08023 16.6498 6.60928
660 1 12.1835 1.33897 28.9624
659 1 9.47145 1.339 28.962
129 1 5.06173 19.2005 6.60903
130 1 7.77309 19.2018 6.60819
658 1 14.2175 16.6479 28.9628
657 1 14.3867 12.8204 26.7279
133 1 1.33185 1.33777 6.60951
656 1 15.2344 14.0962 28.963
655 1 12.5223 14.0964 28.9625
136 1 1.16218 5.16413 8.84523
137 1 0.314214 3.88845 6.61003
138 1 3.02655 3.88994 6.60973
654 1 14.5563 8.99356 24.4923
653 1 15.4037 10.2687 26.7282
141 1 0.994701 8.9911 11.0805
142 1 0.145888 7.71499 8.8455
143 1 2.85825 7.71685 8.84524
144 1 2.00987 6.44088 6.61023
145 1 4.72211 6.44247 6.60976
652 1 12.6917 10.2691 26.7274
651 1 13.5392 11.5447 28.9628
148 1 0.827649 12.8186 13.3159
623 1 6.75934 1.33888 28.9619
150 1 2.69118 11.5441 11.0805
151 1 1.84243 10.268 8.84547
152 1 4.55457 10.2697 8.84513
153 1 3.70596 8.9936 6.6102
154 1 6.41813 8.99527 6.6097
650 1 10.8272 11.5449 28.9623
649 1 14.7261 5.16694 22.2569
157 1 0.658886 16.6464 15.5516
668 1 12.8614 6.44188 28.9625
159 1 2.52338 15.3715 13.3159
160 1 1.67543 14.0953 11.0806
161 1 4.38727 14.097 11.0803
162 1 3.53866 12.8209 8.8453
163 1 6.25082 12.8227 8.84491
164 1 5.40207 11.5464 6.61002
165 1 8.11434 11.5482 6.60954
648 1 15.5736 6.44209 24.4924
647 1 12.8615 6.44249 24.4918
667 1 14.8958 1.33923 24.4926
169 1 2.35325 19.1988 15.5516
170 1 1.50677 17.9227 13.3163
171 1 4.21788 17.924 13.3158
172 1 3.3706 16.648 11.0805
173 1 6.08239 16.6496 11.0801
174 1 5.23422 15.3736 8.84494
175 1 7.94652 15.3754 8.84448
176 1 7.09785 14.0992 6.60957
177 1 9.81032 14.1011 6.60902
646 1 13.7089 7.7177 26.7274
645 1 10.9969 7.71794 26.7269
180 1 5.06382 19.2002 11.0802
181 1 7.77466 19.2015 11.0799
182 1 6.92807 17.9258 8.84432
183 1 9.63983 17.9276 8.84355
184 1 8.79231 16.6515 6.6085
185 1 11.5045 16.6533 6.60736
644 1 11.8442 8.99334 28.9624
643 1 9.13221 8.99345 28.962
188 1 10.4839 19.2031 6.60665
189 1 13.1939 19.2043 6.60373
642 1 14.896 1.34031 20.0218
641 1 15.7433 2.6152 22.2575
192 1 1.33374 1.33717 11.0804
193 1 0.486213 20.4737 8.8447
194 1 3.19771 20.4751 8.8447
195 1 1.16348 5.16374 13.3155
196 1 0.315025 3.88753 11.0803
197 1 3.02754 3.88936 11.0801
198 1 2.1795 2.61346 8.8449
199 1 4.89153 2.61503 8.84455
200 1 4.0437 1.33907 6.60925
201 1 6.75511 1.34041 6.60858
640 1 13.0313 2.61565 22.2567
639 1 13.8787 3.89092 24.4921
204 1 0.995401 8.9911 15.5506
205 1 0.146918 7.7145 13.3155
206 1 2.85927 7.71637 13.3154
207 1 2.01065 6.44014 11.0803
208 1 4.72293 6.44191 11.08
209 1 3.87456 5.16586 8.8449
210 1 6.58659 5.16753 8.84435
211 1 5.73858 3.89144 6.60915
212 1 8.45034 3.89303 6.60823
638 1 11.1666 3.89106 24.4917
637 1 12.014 5.16649 26.727
215 1 0.827054 12.8189 17.7861
622 1 4.0472 1.33866 28.962
217 1 2.6915 11.5439 15.5506
218 1 1.84332 10.2675 13.3155
219 1 4.55546 10.2692 13.3152
220 1 3.70689 8.99298 11.0802
221 1 6.419 8.99473 11.0798
222 1 5.57042 7.71858 8.84481
223 1 8.28238 7.72037 8.84423
224 1 7.43415 6.44411 6.60907
225 1 10.146 6.44592 6.60813
636 1 9.30199 5.16649 26.7267
635 1 10.1494 6.44202 28.9621
228 1 0.657633 16.6467 20.0218
666 1 15.7432 2.61465 26.7278
230 1 2.52253 15.3714 17.7863
231 1 1.67534 14.0951 15.5511
232 1 4.38734 14.0965 15.5507
233 1 3.53955 12.8204 13.3155
234 1 6.25169 12.822 13.3151
235 1 5.40326 11.5459 11.0801
236 1 8.11548 11.5477 11.0797
237 1 7.26671 10.2715 8.84469
238 1 9.9788 10.2736 8.84421
239 1 9.13022 8.99709 6.60908
240 1 11.8422 8.99924 6.60839
634 1 7.43729 6.44197 28.9619
633 1 14.0484 0.0640395 22.2571
665 1 13.0311 2.61492 26.7273
244 1 2.35275 19.1989 20.0218
245 1 1.50563 17.9227 17.7868
246 1 4.21752 17.9237 17.7864
247 1 3.37052 16.6476 15.5512
248 1 6.0823 16.6488 15.5508
249 1 5.23523 15.373 13.3154
250 1 7.94748 15.3746 13.315
251 1 7.0995 14.0988 11.0799
252 1 9.8122 14.1008 11.0794
253 1 8.96319 12.8247 8.84446
254 1 11.6758 12.8272 8.84413
255 1 10.8267 11.5504 6.60905
256 1 13.539 11.553 6.60871
632 1 11.3364 0.0641564 22.2566
631 1 12.1837 1.3395 24.4919
259 1 5.06489 19.1999 15.5511
260 1 7.77668 19.2011 15.5508
261 1 6.92936 17.9252 13.3155
262 1 9.64097 17.9266 13.3154
263 1 8.79482 16.6513 11.0796
264 1 11.5083 16.6537 11.079
265 1 10.6593 15.3777 8.84398
266 1 13.3727 15.3807 8.84362
267 1 12.523 14.1035 6.60852
268 1 15.236 14.1053 6.60862
630 1 9.47167 1.33944 24.4916
270 1 10.4848 19.2029 11.0796
271 1 13.1927 19.2045 11.0793
272 1 12.3518 17.9298 8.84222
273 1 15.064 17.9335 8.83927
274 1 14.217 16.6549 6.60574
275 1 1.33536 1.33747 15.5515
276 1 0.48856 20.4736 13.3164
277 1 3.19982 20.4749 13.316
278 1 1.16502 5.1644 17.7861
279 1 0.317069 3.88796 15.551
280 1 3.02927 3.88938 15.5508
281 1 2.18134 2.61321 13.3157
282 1 4.8934 2.6147 13.3154
283 1 4.04545 1.33872 11.0801
284 1 6.75701 1.34021 11.0798
285 1 5.90886 0.0641689 8.84436
286 1 8.61925 0.0655462 8.84372
287 1 0.995741 8.99179 20.021
288 1 0.14778 7.7152 17.7859
289 1 2.8601 7.71654 17.7857
290 1 2.01191 6.44013 15.5506
291 1 4.7242 6.4416 15.5504
292 1 3.87586 5.16544 13.3153
293 1 6.588 5.16696 13.315
294 1 5.73967 3.891 11.0798
295 1 8.45149 3.89263 11.0792
296 1 7.60321 2.61662 8.84392
297 1 10.3146 2.61846 8.8429
298 1 9.46591 1.34182 6.60742
299 1 12.1757 1.34335 6.60544
629 1 10.3191 2.615 26.7269
628 1 7.60699 2.61485 26.7267
302 1 0.826488 12.8194 22.2564
621 1 14.2175 16.6483 24.4926
304 1 2.6912 11.544 20.0209
305 1 1.84347 10.2677 17.7858
306 1 4.55574 10.2689 17.7855
307 1 3.70767 8.99269 15.5504
308 1 6.41988 8.99411 15.5501
309 1 5.57146 7.71802 13.3151
310 1 8.2835 7.71956 13.3147
311 1 7.43493 6.44358 11.0795
312 1 10.1466 6.44532 11.079
313 1 9.29828 5.1693 8.84356
314 1 12.0095 5.17142 8.84248
315 1 11.1618 3.89483 6.60679
316 1 13.8729 3.89721 6.60457
627 1 8.4544 3.89052 28.9619
626 1 5.74229 3.89037 28.9619
319 1 0.657066 16.647 24.492
664 1 13.8786 3.89037 28.9626
321 1 2.52179 15.3715 22.2565
322 1 1.67443 14.0953 20.0213
323 1 4.38657 14.0962 20.0211
324 1 3.53922 12.8201 17.7858
325 1 6.25142 12.8213 17.7855
326 1 5.40368 11.5453 15.5503
327 1 8.11593 11.5468 15.5499
328 1 7.26761 10.2708 13.3149
329 1 9.97976 10.2725 13.3145
330 1 9.13099 8.99652 11.0794
331 1 11.8428 8.99853 11.0791
332 1 10.9941 7.72241 8.84358
333 1 13.7054 7.72501 8.84298
334 1 12.8575 6.44812 6.6069
335 1 15.5685 6.45269 6.60529
625 1 8.62401 0.0633489 26.7268
663 1 11.1665 3.89053 28.9622
338 1 2.35232 19.199 24.4919
339 1 1.50492 17.9229 22.2569
340 1 4.21704 17.9235 22.2566
341 1 3.3697 16.6475 20.0215
342 1 6.08174 16.6483 20.0212
343 1 5.23453 15.3724 17.786
344 1 7.9465 15.3734 17.7857
345 1 7.0995 14.0979 15.5503
346 1 9.81185 14.0993 15.5498
347 1 8.96405 12.8237 13.3146
348 1 11.6767 12.8257 13.3142
349 1 10.8278 11.5498 11.0793
350 1 13.5401 11.5526 11.0792
351 1 12.6908 10.2761 8.84387
352 1 15.4025 10.2797 8.84367
353 1 14.5538 9.00235 6.60758
354 1 5.06479 19.1997 20.0215
355 1 7.77685 19.2004 20.0212
356 1 6.92943 17.9246 17.7861
357 1 9.64136 17.9256 17.786
358 1 8.79415 16.65 15.5506
359 1 11.5059 16.6511 15.5507
360 1 10.6603 15.3765 13.3144
361 1 13.3739 15.3791 13.3138
362 1 12.5255 14.1036 11.079
363 1 15.2399 14.1077 11.079
364 1 14.3886 12.8303 8.8443
365 1 10.4886 19.2023 15.5507
366 1 13.2007 19.2034 15.5509
367 1 12.3524 17.928 13.3156
368 1 15.0629 17.9293 13.3174
369 1 14.2242 16.6578 11.0782
370 1 1.33559 1.3379 20.022
371 1 0.488432 20.4739 17.7871
372 1 3.2003 20.4749 17.7866
373 1 1.16568 5.16522 22.2568
374 1 0.318184 3.88898 20.0219
375 1 3.03024 3.88978 20.0214
376 1 2.18272 2.61363 17.7865
377 1 4.89476 2.61465 17.7861
378 1 4.04718 1.33864 15.5511
379 1 6.75915 1.33983 15.5507
380 1 5.91131 0.0639122 13.3156
381 1 8.62293 0.0652703 13.3152
382 1 0.995937 8.99252 24.4917
383 1 0.14837 7.7163 22.2566
384 1 2.86056 7.71699 22.2562
385 1 2.01286 6.44077 20.0212
386 1 4.72506 6.4417 20.0209
387 1 3.87722 5.16557 17.7858
388 1 6.58941 5.16665 17.7856
389 1 5.74144 3.89068 15.5505
390 1 8.45357 3.89189 15.5502
391 1 7.6054 2.61613 13.315
392 1 10.3174 2.61759 13.3145
393 1 9.4684 1.34183 11.0792
394 1 12.1797 1.34384 11.0784
395 1 11.3279 0.0670003 8.84263
396 1 14.0327 0.0688148 8.84053
397 1 0.826306 12.8199 26.7269
620 1 15.0651 17.9238 26.7278
399 1 2.69097 11.5443 24.4914
400 1 1.84344 10.2681 22.2562
401 1 4.55567 10.2689 22.256
402 1 3.70802 8.99281 20.0208
403 1 6.42027 8.99375 20.0206
404 1 5.57236 7.71774 17.7855
405 1 8.28456 7.71879 17.7852
406 1 7.43636 6.44291 15.5501
407 1 10.1484 6.44405 15.5499
408 1 9.29991 5.1684 13.3146
409 1 12.0115 5.16976 13.3142
410 1 11.1629 3.8944 11.0785
411 1 13.8737 3.89647 11.0775
412 1 13.0256 2.62089 8.84121
413 1 15.7365 2.62384 8.83766
414 1 14.8841 1.3453 6.6016
415 1 0.656835 16.6474 28.9622
662 1 14.0482 0.0632708 26.7276
417 1 2.52147 15.3716 26.7268
418 1 1.67397 14.0956 24.4916
419 1 4.38612 14.0961 24.4915
420 1 3.53868 12.8201 22.2562
421 1 6.25083 12.8208 22.2561
422 1 5.40344 11.545 20.0207
423 1 8.11564 11.5458 20.0205
424 1 7.26799 10.2701 17.7852
425 1 9.98019 10.2711 17.785
426 1 9.13203 8.99543 15.5498
427 1 11.8441 8.99663 15.5497
428 1 10.9953 7.72107 13.3144
429 1 13.7069 7.72261 13.3145
430 1 12.8578 6.44727 11.0785
431 1 15.5681 6.45063 11.0786
432 1 14.7201 5.17417 8.84127
661 1 11.3361 0.0634226 26.7271
434 1 2.35203 19.1991 28.9621
435 1 1.50454 17.9231 26.727
436 1 4.2167 17.9235 26.7268
437 1 3.36923 16.6475 24.4917
438 1 6.08136 16.648 24.4916
439 1 5.23391 15.3721 22.2563
440 1 7.94596 15.3727 22.2563
441 1 7.09865 14.097 20.0209
442 1 9.81061 14.0977 20.0209
443 1 8.96363 12.8224 17.7852
444 1 11.6758 12.8234 17.785
445 1 10.8282 11.5482 15.5496
446 1 13.5405 11.5498 15.5495
447 1 12.6918 10.2743 13.3143
448 1 15.4037 10.277 13.3147
449 1 14.5542 9.00147 11.0791
450 1 5.06446 19.1995 24.4917
451 1 7.77658 19.1999 24.4916
452 1 6.92914 17.9242 22.2564
453 1 9.6412 17.9246 22.2565
454 1 8.79372 16.649 20.0212
455 1 11.5056 16.6495 20.0215
456 1 10.6583 15.3743 17.7858
457 1 13.3698 15.3746 17.7865
458 1 12.5244 14.101 15.5494
459 1 15.2372 14.1024 15.5493
460 1 14.3895 12.8284 13.3139
461 1 10.4889 19.2011 20.0212
462 1 13.201 19.2013 20.0216
463 1 12.3533 17.9263 17.7863
464 1 15.0651 17.9258 17.7878
465 1 14.2171 16.6516 15.5517
466 1 1.33533 1.33822 24.4922
467 1 0.487959 20.4743 22.2572
468 1 3.20007 20.4749 22.2568
469 1 1.16565 5.16565 26.7272
470 1 0.318243 3.88963 24.4923
471 1 3.03036 3.89005 24.4918
472 1 2.18294 2.61402 22.2569
473 1 4.89504 2.61463 22.2565
474 1 4.04762 1.33867 20.0215
475 1 6.7597 1.33945 20.0212
476 1 5.91225 0.063608 17.7862
477 1 8.62432 0.0645863 17.7859
478 1 0.995914 8.99295 28.9622
479 1 0.148484 7.717 26.7272
480 1 2.86061 7.7173 26.7268
481 1 2.01317 6.44133 24.4917
482 1 4.7253 6.44181 24.4914
483 1 3.87779 5.16586 22.2564
484 1 6.58992 5.16648 22.2562
485 1 5.74235 3.89061 20.0211
486 1 8.45448 3.89134 20.0209
487 1 7.60687 2.61563 17.7858
488 1 10.319 2.61648 17.7856
489 1 9.47129 1.34104 15.5504
490 1 12.1837 1.34217 15.5501
491 1 11.3347 0.0668189 13.3149
492 1 14.0474 0.0687628 13.3147
619 1 12.353 17.924 26.7273
494 1 2.6909 11.5445 28.9619
495 1 1.84342 10.2686 26.7268
496 1 4.55555 10.2689 26.7266
497 1 3.70811 8.99303 24.4914
498 1 6.42026 8.99352 24.4912
499 1 5.57275 7.7177 22.256
500 1 8.28492 7.7183 22.2559
501 1 7.43725 6.44254 20.0207
502 1 10.1494 6.44317 20.0206
503 1 9.30155 5.16756 17.7854
504 1 12.0136 5.16814 17.7854
505 1 11.1657 3.89292 15.55
506 1 13.8777 3.89327 15.5499
507 1 13.0296 2.61908 13.3139
508 1 15.7423 2.61885 13.3129
509 1 14.8917 1.34705 11.0768
510 1 1.67383 14.0959 28.962
511 1 4.38597 14.0962 28.9618
512 1 3.53846 12.8202 26.7266
513 1 6.25058 12.8206 26.7266
514 1 5.40313 11.5448 24.4913
515 1 8.11521 11.5452 24.4913
516 1 7.26786 10.2696 22.2559
517 1 9.97997 10.27 22.2559
518 1 9.13246 8.99454 20.0204
519 1 11.8446 8.99507 20.0205
520 1 10.9967 7.71963 17.7851
521 1 13.7086 7.72019 17.7854
522 1 12.8602 6.44487 15.5499
523 1 15.5718 6.44594 15.5506
524 1 14.7227 5.17066 13.3143
525 1 3.369 16.6476 28.9619
526 1 6.08114 16.6479 28.9618
527 1 5.23362 15.372 26.7267
528 1 7.94573 15.3723 26.7267
529 1 7.09823 14.0966 24.4914
530 1 9.81024 14.0968 24.4916
531 1 8.96287 12.8213 22.2561
532 1 11.6747 12.8214 22.2565
533 1 10.8277 11.5465 20.0205
534 1 13.5397 11.5468 20.0209
535 1 12.6923 10.272 17.785
536 1 15.4043 10.2724 17.7857
537 1 14.5559 8.998 15.5501
538 1 5.06419 19.1994 28.9619
539 1 7.77632 19.1996 28.9619
540 1 6.92884 17.9238 26.7267
541 1 9.64095 17.924 26.7269
542 1 8.79344 16.6484 24.4916
543 1 11.5055 16.6485 24.492
544 1 10.6579 15.373 22.2566
545 1 13.3697 15.3728 22.2574
546 1 12.5223 14.0979 20.0215
547 1 15.2336 14.0967 20.0235
548 1 14.3879 12.8241 17.7854
549 1 10.4887 19.2001 24.4918
550 1 13.2007 19.2001 24.4922
551 1 12.3532 17.9248 22.2569
552 1 15.0653 17.9244 22.2577
553 1 14.2174 16.6491 20.0226
554 1 1.33505 1.33841 28.9623
555 1 0.48759 20.4746 26.7273
556 1 3.19975 20.475 26.727
557 1 0.318013 3.88992 28.9624
558 1 3.03016 3.89014 28.9621
559 1 2.18274 2.61423 26.7271
560 1 4.89488 2.61457 26.7268
561 1 4.04746 1.33868 24.4918
562 1 6.75958 1.33912 24.4916
563 1 5.91217 0.0633156 22.2565
564 1 8.62427 0.0638528 22.2564
565 1 2.01306 6.44157 28.9622
566 1 4.72519 6.44179 28.9619
567 1 3.87778 5.16597 26.7268
568 1 6.5899 5.16628 26.7267
569 1 5.74247 3.89051 24.4916
570 1 8.45457 3.89088 24.4915
571 1 7.60714 2.61521 22.2563
572 1 10.3192 2.6156 22.2564
573 1 9.47182 1.34014 20.0211
574 1 12.1839 1.34052 20.0212
575 1 11.3365 0.0654629 17.7858
576 1 14.0489 0.0658196 17.7861
577 1 3.70803 8.99316 28.9619
578 1 6.42014 8.99336 28.9618
579 1 5.57273 7.71763 26.7266
580 1 8.28483 7.71789 26.7266
581 1 7.43743 6.44225 24.4913
582 1 10.1495 6.44252 24.4914
583 1 9.30204 5.16698 22.2561
584 1 12.0141 5.16719 22.2563
585 1 11.1666 3.89182 20.0209
586 1 13.8786 3.89181 20.0213
587 1 13.0312 2.61688 17.7856
588 1 15.7432 2.61638 17.786
589 1 14.8966 1.3424 15.5497
590 1 5.40301 11.5447 28.9618
591 1 8.11511 11.5449 28.9619
592 1 7.26766 10.2692 26.7266
593 1 9.97969 10.2693 26.7268
594 1 9.13236 8.99388 24.4913
595 1 11.8444 8.99394 24.4916
596 1 10.997 7.71867 22.256
597 1 13.709 7.71862 22.2564
598 1 12.8614 6.44346 20.0208
599 1 15.5734 6.44321 20.0216
600 1 14.7256 5.16821 17.7858
601 1 7.0981 14.0964 28.9618
602 1 9.81019 14.0965 28.9621
603 1 8.96264 12.8208 26.7268
604 1 11.6747 12.8207 26.7272
605 1 10.8272 11.5453 24.4916
606 1 13.5391 11.5449 24.4925
607 1 12.692 10.2701 22.2563
608 1 15.4038 10.2696 22.2573
609 1 14.5565 8.99513 20.0211
610 1 8.79327 16.648 28.962
611 1 11.5054 16.648 28.9623
612 1 10.6578 15.3724 26.727
613 1 13.3699 15.3723 26.7275
614 1 12.5222 14.0967 24.4923
615 1 15.2342 14.0962 24.4932
616 1 14.3864 12.8208 22.2578
617 1 10.4884 19.1997 28.9621
618 1 13.2005 19.1996 28.9625
926 1 16.2514 11.5535 6.60841
965 1 16.2525 11.5552 11.0794
1032 1 16.2527 11.5503 15.5502
1119 1 16.2515 11.546 20.0223
1214 1 16.251 11.5442 24.4937
1309 1 16.2514 11.5445 28.9633
673 1 0.826281 12.8203 31.1973
674 1 0.65683 16.6476 33.43
816 1 14.7257 5.16575 35.5951
676 1 2.52137 15.3719 31.1971
1506 1 16.0818 15.3719 35.5952
678 1 2.35194 19.1993 33.4299
679 1 1.50437 17.9234 31.1972
680 1 4.21652 17.9235 31.197
681 1 1.16545 5.16582 31.1974
682 1 0.995892 8.99315 33.4301
683 1 0.148361 7.71729 31.1975
684 1 2.86049 7.71742 31.1972
685 1 0.826489 12.8204 35.5944
1491 1 16.0821 15.3719 31.1982
687 1 2.69092 11.5447 33.4299
688 1 1.84338 10.2688 31.1972
689 1 4.55549 10.269 31.1971
815 1 14.8955 1.33854 33.4307
691 1 2.5215 15.372 35.5942
692 1 1.67387 14.0962 33.4299
693 1 4.38596 14.0963 33.4298
694 1 3.53841 12.8204 31.1971
695 1 6.25053 12.8205 31.197
696 1 1.5045 17.9235 35.5943
697 1 4.21653 17.9236 35.5941
698 1 3.36895 16.6477 33.4298
699 1 6.08105 16.6478 33.4297
700 1 5.23351 15.372 31.197
701 1 7.94564 15.3721 31.1971
702 1 5.06405 19.1994 33.4298
703 1 7.77614 19.1994 33.4298
704 1 6.92866 17.9237 31.197
705 1 9.64078 17.9237 31.1972
706 1 1.33493 1.33853 33.4301
707 1 0.48737 20.4749 31.1974
708 1 3.19953 20.4751 31.1971
709 1 1.16555 5.16586 35.5945
710 1 0.317895 3.89005 33.4302
711 1 3.03002 3.89016 33.43
712 1 2.18251 2.61432 31.1973
713 1 4.89465 2.61448 31.1971
714 1 0.14851 7.71739 35.5946
715 1 2.86055 7.71747 35.5944
716 1 2.01296 6.44167 33.4301
717 1 4.72505 6.44175 33.4299
718 1 3.87759 5.16597 31.1972
719 1 6.5897 5.16609 31.1971
720 1 1.84352 10.269 35.5944
721 1 4.55552 10.269 35.5942
722 1 3.70799 8.99323 33.4299
723 1 6.42006 8.99329 33.4299
724 1 5.5726 7.71755 31.1971
725 1 8.28469 7.71761 31.1972
726 1 3.53851 12.8205 35.5942
727 1 6.2505 12.8206 35.5942
728 1 5.403 11.5448 33.4298
729 1 8.11508 11.5448 33.4299
730 1 7.26759 10.2691 31.1971
731 1 9.97967 10.2691 31.1973
732 1 5.23351 15.3721 35.5941
733 1 7.9455 15.3721 35.5942
734 1 7.09805 14.0963 33.4298
735 1 9.81014 14.0963 33.43
736 1 8.96263 12.8206 31.1972
737 1 11.6747 12.8205 31.1975
738 1 6.92853 17.9236 35.5941
739 1 9.64054 17.9236 35.5943
740 1 8.79314 16.6479 33.4299
741 1 11.5053 16.6478 33.4302
742 1 10.6578 15.3722 31.1973
743 1 13.3699 15.3721 31.1977
744 1 10.4882 19.1994 33.43
745 1 13.2004 19.1993 33.4304
746 1 12.3529 17.9237 31.1975
747 1 15.0651 17.9236 31.198
748 1 0.487501 20.475 35.5945
749 1 3.19955 20.4751 35.5942
750 1 2.18256 2.61434 35.5944
751 1 4.89458 2.61442 35.5942
752 1 4.04704 1.33865 33.4298
753 1 6.75914 1.33873 33.4298
754 1 5.91167 0.0629685 31.197
755 1 8.62379 0.0630599 31.1971
756 1 3.87757 5.16595 35.5943
757 1 6.58956 5.16599 35.5942
758 1 5.74211 3.89025 33.4298
759 1 8.45419 3.89028 33.4299
760 1 7.60677 2.6146 31.1971
761 1 10.3189 2.61461 31.1973
762 1 5.57254 7.71752 35.5943
763 1 8.28451 7.71751 35.5944
764 1 7.43712 6.44179 33.4299
765 1 10.1492 6.44174 33.4301
766 1 9.3018 5.16613 31.1972
767 1 12.0139 5.16605 31.1976
768 1 7.2675 10.2691 35.5943
769 1 9.9795 10.269 35.5945
770 1 9.13212 8.99327 33.43
771 1 11.8442 8.99318 33.4304
772 1 10.9968 7.71755 31.1975
773 1 13.7089 7.71738 31.1979
774 1 8.96249 12.8206 35.5943
775 1 11.6745 12.8205 35.5946
776 1 10.8272 11.5448 33.4302
777 1 13.5393 11.5447 33.4306
778 1 12.6918 10.2689 31.1977
779 1 15.4039 10.2688 31.1982
780 1 10.6575 15.3721 35.5944
781 1 13.3696 15.372 35.5948
782 1 12.5223 14.0963 33.4303
783 1 15.2344 14.0961 33.4308
784 1 14.3869 12.8204 31.198
785 1 12.3526 17.9236 35.5946
786 1 15.0648 17.9235 35.595
787 1 14.2174 16.6477 33.4306
788 1 5.91156 0.0629006 35.5941
789 1 8.62356 0.0629253 35.5943
790 1 7.60656 2.61446 35.5942
791 1 10.3186 2.61442 35.5945
792 1 9.47123 1.33874 33.43
793 1 12.1833 1.33867 33.4303
794 1 11.3359 0.0630484 31.1974
795 1 14.048 0.0629378 31.1978
796 1 9.30154 5.16596 35.5944
797 1 12.0136 5.16587 35.5947
798 1 11.1663 3.89022 33.4302
799 1 13.8784 3.89009 33.4306
800 1 13.031 2.61452 31.1977
801 1 15.7431 2.61433 31.1981
802 1 10.9965 7.71744 35.5946
803 1 13.7086 7.71733 35.595
804 1 12.8613 6.44162 33.4305
805 1 15.5735 6.44148 33.4309
806 1 14.726 5.16586 31.198
807 1 12.6916 10.2689 35.5948
808 1 15.4038 10.2688 35.5952
809 1 14.5564 8.99306 33.4308
810 1 14.3867 12.8204 35.595
811 1 11.3356 0.0628762 35.5945
812 1 14.0477 20.475 35.5949
813 1 13.0306 2.61432 35.5948
814 1 15.7428 2.61419 35.5952
1493 1 15.9125 19.1992 33.4308
1502 1 16.2515 11.5445 33.431
817 1 17.0971 12.8237 -0.0270416
818 1 16.9244 16.6473 2.13005
912 1 31.1656 1.33732 2.14179
820 1 18.7915 15.3723 -0.0301518
1152 1 30.9958 5.16387 4.37525
822 1 18.6202 19.2015 2.12978
823 1 17.7729 17.9246 -0.0328307
824 1 20.4868 17.9244 -0.0306834
825 1 17.4353 5.17333 -0.030898
826 1 17.2669 8.99972 2.13753
827 1 16.4185 7.72476 -0.027455
828 1 19.1318 7.72431 -0.0291962
1134 1 32.0129 2.61298 4.37464
830 1 18.9623 11.5486 2.13818
831 1 18.1145 10.2744 -0.026879
832 1 20.8275 10.2726 -0.0267396
833 1 17.945 14.0994 2.13675
834 1 20.6575 14.0982 2.13814
835 1 19.8102 12.8227 -0.0264766
836 1 22.5227 12.8213 -0.0249094
837 1 19.6384 16.6485 2.13321
838 1 22.3515 16.6489 2.13687
839 1 21.5049 15.3723 -0.027282
840 1 24.2174 15.3716 -0.0249428
841 1 21.3335 19.2015 2.13266
842 1 24.0463 19.2 2.13696
843 1 23.1999 17.9238 -0.0275525
844 1 25.9122 17.9227 -0.0248004
845 1 17.6032 1.34338 2.12968
846 1 16.7551 0.0660382 -0.0328994
847 1 19.4691 0.0657358 -0.0332001
848 1 16.5872 3.8967 2.13249
849 1 19.301 3.89781 2.12918
850 1 18.452 2.61996 -0.0332454
851 1 21.1663 2.61896 -0.0330126
852 1 18.2837 6.44868 2.13397
853 1 20.9965 6.44665 2.13366
854 1 20.1496 5.17314 -0.0330426
855 1 22.8634 5.17072 -0.0312859
856 1 19.9793 8.99757 2.13689
857 1 22.6913 8.99417 2.13853
858 1 21.8451 7.72214 -0.0287004
859 1 24.5575 7.71855 -0.0255789
860 1 21.6745 11.5461 2.13903
861 1 24.3865 11.5442 2.14076
862 1 23.5399 10.27 -0.0247809
863 1 26.2517 10.268 -0.0226698
864 1 23.3696 14.0969 2.13981
865 1 26.0817 14.0956 2.14121
866 1 25.2348 12.8199 -0.0232913
867 1 27.9466 12.8191 -0.0221557
868 1 25.0639 16.6477 2.13945
869 1 27.776 16.6462 2.14141
870 1 26.9294 15.3708 -0.0232935
871 1 29.6412 15.3704 -0.0222754
872 1 26.7583 19.1976 2.14061
873 1 29.4707 19.1976 2.14159
874 1 28.6239 17.9218 -0.0229366
875 1 31.3355 17.9223 -0.0225021
876 1 20.3168 1.34326 2.12944
877 1 23.0301 1.34126 2.13344
878 1 22.1829 0.0647541 -0.0306156
879 1 24.8956 0.0630117 -0.0267241
880 1 22.0148 3.89626 2.1299
881 1 24.7253 3.88985 2.13787
882 1 23.8797 2.61658 -0.0293334
883 1 26.5909 2.61334 -0.024111
884 1 23.7085 6.44262 2.13697
885 1 26.4199 6.44003 2.14121
886 1 25.5748 5.16611 -0.0252115
887 1 28.2857 5.16476 -0.0226121
888 1 25.4031 8.9919 2.14111
889 1 28.1152 8.99144 2.1426
890 1 27.2688 7.71637 -0.0224845
891 1 29.9802 7.71625 -0.021531
892 1 27.0985 11.5434 2.14213
893 1 29.8106 11.5433 2.14287
894 1 28.9634 10.2676 -0.0215798
895 1 31.6751 10.268 -0.0212795
896 1 28.7937 14.0948 2.14228
897 1 31.5058 14.0952 2.14261
898 1 30.6583 12.8192 -0.0216036
899 1 30.4883 16.6464 2.14203
900 1 25.7413 1.33706 2.13964
901 1 28.4535 1.33678 2.14134
902 1 27.6071 20.4735 -0.0234258
903 1 30.3185 20.4737 -0.0226706
904 1 27.4369 3.88846 2.14115
905 1 30.1488 3.88863 2.1421
906 1 29.302 2.61303 -0.0226709
907 1 32.0134 2.61363 -0.0223804
908 1 29.1319 6.43991 2.14255
909 1 31.844 6.44058 2.14279
910 1 30.9969 5.16502 -0.0219306
911 1 30.8273 8.99183 2.14307
3 1 32.3529 15.371 -0.0220731
913 1 17.0987 12.8271 4.37238
916 1 18.7939 15.3748 4.36975
919 1 17.769 17.9194 4.35513
920 1 20.4858 17.9252 4.36433
921 1 17.434 5.17494 4.36533
923 1 16.4182 7.72556 4.36977
924 1 19.1308 7.72387 4.3687
928 1 18.1147 10.2753 4.37157
929 1 20.8266 10.2707 4.3716
935 1 19.8103 12.823 4.37133
936 1 22.5222 12.8205 4.37212
943 1 21.506 15.3745 4.37153
99 1 32.3539 15.3712 4.3751
944 1 24.2176 15.3728 4.37267
947 1 23.1984 17.9251 4.36999
948 1 25.9106 17.9209 4.3737
950 1 16.7517 0.0660034 4.35884
1633 3 20.1526 20.0998 10.3836
955 1 18.4507 2.62488 4.35744
956 1 21.1681 2.62532 4.35456
962 1 20.1476 5.17358 4.36387
963 1 22.8604 5.16702 4.36744
971 1 21.8429 7.71848 4.37028
972 1 24.5544 7.71453 4.37344
982 1 23.5384 10.2673 4.37304
983 1 26.2505 10.2663 4.3745
994 1 25.2343 12.8192 4.37359
995 1 27.9466 12.8181 4.37498
1002 1 26.9296 15.3699 4.37443
1003 1 29.6418 15.3702 4.37499
1006 1 28.6234 17.9213 4.37426
1007 1 31.336 17.9222 4.37454
1018 1 22.1813 0.0656552 4.36415
1019 1 24.8923 20.4714 4.37329
1029 1 23.8769 2.61214 4.37072
1030 1 26.5883 2.61144 4.3734
1042 1 25.5711 5.16255 4.37369
1043 1 28.2833 5.16293 4.37494
1057 1 27.2666 7.71426 4.37499
1058 1 29.9791 7.71497 4.37559
1073 1 28.9629 10.2664 4.37545
1074 1 31.6752 10.2675 4.37569
1085 1 30.6588 12.8189 4.37547
1116 1 27.6053 20.4723 4.37374
1117 1 30.318 20.4732 4.37423
1133 1 29.3006 2.61206 4.37437
5 1 32.1828 19.1983 2.14176
13 1 32.5227 11.544 2.14298
433 1 32.186 19.1989 28.9624
914 1 16.9293 16.6545 6.60128
1488 1 31.169 1.3382 28.9627
416 1 32.3554 15.3713 26.7271
1487 1 30.8299 8.99281 28.9626
918 1 18.6076 19.1902 6.56978
337 1 32.1863 19.1985 24.4923
320 1 32.3558 15.3708 22.2568
243 1 32.1868 19.1981 20.0223
922 1 17.2662 9.00177 6.60635
229 1 32.3567 15.3703 17.7867
168 1 32.1879 19.1977 15.5522
925 1 17.1014 12.83 8.84471
1440 1 22.1848 20.4745 26.7288
927 1 18.9633 11.5503 6.60835
158 1 32.3581 15.3698 13.3163
121 1 32.1895 19.1977 11.0807
930 1 16.9457 16.6713 11.0777
1486 1 30.9996 5.16542 26.7277
932 1 18.7995 15.3839 8.84481
933 1 17.948 14.104 6.60886
934 1 20.6588 14.0977 6.60578
115 1 32.3569 15.3703 8.84547
101 1 32.1842 19.198 6.60942
1485 1 31.847 6.44139 28.9626
938 1 18.5771 19.161 11.0978
939 1 17.7756 17.9351 8.82786
940 1 20.4933 17.9402 8.84567
941 1 19.644 16.6528 6.60572
942 1 22.3549 16.6537 6.60746
1476 1 28.4568 1.33805 28.9631