ITEM: TIMESTEP
12
ITEM: NUMBER OF ATOMS
14401
ITEM: BOX BOUNDS pp pp pp
8.8598786254404774e-02 6.5262807480445886e+01
1.1745495684415849e-01 6.1496441751503561e+01
-2.2325914311487910e+01 7.5685114087067248e+01
ITEM: ATOMS id type x y z
1 1 0.993788 28.2495 0.0052563
7470 1 32.6757 0.11782 4.39064
3 1 0.993789 20.5771 0.00525802
4 1 0.993788 24.4133 2.16415
672 1 10.951 0.117485 4.3907
6 1 2.80418 23.1346 0.00525639
7 1 0.993788 28.2495 4.3907
459 1 13.6666 0.117485 0.00525702
9 1 2.80418 26.9708 2.16415
10 1 1.89899 25.692 0.0052581
11 1 4.61458 25.692 0.00525804
12 1 2.80418 30.8069 4.3907
13 1 1.89899 29.5282 2.16415
14 1 4.61458 29.5282 2.16415
15 1 3.70938 28.2495 0.00525632
16 1 6.42497 28.2495 0.00525641
17 1 8.23537 30.8069 0.00525834
18 1 0.993788 12.9048 0.0052563
19 1 0.993788 16.741 2.16415
5351 1 27.2445 30.8069 22.2217
21 1 2.80418 15.4622 0.00525811
22 1 0.993788 20.5771 4.3907
7909 1 32.6757 15.4622 22.2217
24 1 2.80418 19.2984 2.16415
25 1 1.89899 18.0197 0.00525638
26 1 4.61458 18.0197 0.00525632
27 1 0.993788 24.4133 6.61955
5323 1 29.9601 30.8069 17.7639
29 1 2.80418 23.1346 4.3907
30 1 1.89899 21.8559 2.16415
31 1 4.61458 21.8559 2.16415
32 1 3.70938 20.5771 0.00525804
33 1 6.42497 20.5771 0.00525813
34 1 0.993788 28.2495 8.84841
458 1 10.951 0.117485 0.00525887
36 1 2.80418 26.9708 6.61955
37 1 1.89899 25.692 4.3907
38 1 4.61458 25.692 4.3907
39 1 3.70938 24.4133 2.16415
40 1 6.42497 24.4133 2.16415
41 1 5.51978 23.1346 0.00525641
42 1 8.23537 23.1346 0.00525661
43 1 2.80418 30.8069 8.84841
44 1 1.89899 29.5282 6.61955
45 1 4.61458 29.5282 6.61955
46 1 3.70938 28.2495 4.3907
47 1 6.42497 28.2495 4.3907
48 1 5.51978 26.9708 2.16415
49 1 8.23537 26.9708 2.16415
50 1 7.33017 25.692 0.00525805
51 1 10.0458 25.692 0.00525881
52 1 7.33017 29.5282 2.16415
53 1 10.0458 29.5282 2.16415
54 1 9.14057 28.2495 0.00525704
55 1 11.8562 28.2495 0.00525646
56 1 13.6666 30.8069 0.00525661
57 1 0.993788 5.2324 0.00525716
58 1 0.993788 9.06858 2.16415
5261 1 29.9601 30.8069 13.3062
60 1 2.80418 7.78986 0.00525724
61 1 0.993788 12.9048 4.3907
5157 1 27.2445 30.8068 8.84842
63 1 2.80418 11.6261 2.16415
64 1 1.89899 10.3473 0.00525809
65 1 4.61458 10.3473 0.00525803
66 1 0.993788 16.741 6.61955
444 1 8.23537 61.4964 4.3907
68 1 2.80418 15.4622 4.3907
69 1 1.89899 14.1835 2.16415
70 1 4.61458 14.1835 2.16415
71 1 3.70938 12.9048 0.00525632
72 1 6.42497 12.9048 0.00525641
73 1 0.993788 20.5771 8.84841
1548 1 27.2444 0.117738 8.84845
75 1 2.80418 19.2984 6.61955
76 1 1.89899 18.0197 4.3907
77 1 4.61458 18.0197 4.3907
78 1 3.70938 16.741 2.16415
79 1 6.42497 16.741 2.16415
80 1 5.51978 15.4622 0.00525813
81 1 8.23537 15.4622 0.00525834
82 1 0.993788 24.4133 11.0773
5141 1 21.8133 30.8069 13.3061
84 1 2.80418 23.1346 8.84841
85 1 1.89899 21.8559 6.61955
86 1 4.61458 21.8559 6.61955
87 1 3.70938 20.5771 4.3907
88 1 6.42497 20.5771 4.3907
89 1 5.51978 19.2984 2.16415
90 1 8.23537 19.2984 2.16415
91 1 7.33017 18.0197 0.00525633
92 1 10.0458 18.0197 0.00525709
93 1 0.993788 28.2495 13.3061
7538 1 32.6757 23.1346 17.7639
95 1 2.80418 26.9708 11.0773
96 1 1.89899 25.692 8.84841
97 1 4.61458 25.692 8.84841
98 1 3.70938 24.4133 6.61955
99 1 6.42497 24.4133 6.61955
100 1 5.51978 23.1346 4.3907
101 1 8.23537 23.1346 4.3907
102 1 7.33017 21.8559 2.16415
103 1 10.0458 21.8559 2.16415
104 1 9.14057 20.5771 0.00525876
105 1 11.8562 20.5771 0.00525819
2162 1 21.8133 23.1346 26.6796
107 1 1.89899 29.5282 11.0773
108 1 4.61458 29.5282 11.0773
109 1 3.70938 28.2495 8.84841
110 1 6.42497 28.2495 8.84841
111 1 5.51978 26.9708 6.61955
112 1 8.23537 26.9708 6.61955
113 1 7.33017 25.692 4.3907
114 1 10.0458 25.692 4.3907
115 1 9.14057 24.4133 2.16415
116 1 11.8562 24.4133 2.16415
117 1 10.951 23.1346 0.00525675
118 1 13.6666 23.1346 0.0052549
119 1 7.33017 29.5282 6.61955
120 1 10.0458 29.5282 6.61955
121 1 9.14057 28.2495 4.3907
122 1 11.8562 28.2495 4.3907
123 1 10.951 26.9708 2.16415
124 1 13.6666 26.9708 2.16415
125 1 12.7614 25.692 0.00525747
126 1 15.4769 25.692 0.00525746
127 1 10.951 30.8069 4.3907
128 1 13.6666 30.8069 4.3907
129 1 12.7614 29.5282 2.16415
130 1 15.4769 29.5282 2.16415
131 1 14.5717 28.2495 0.00525488
132 1 17.2873 28.2495 0.00525641
133 1 16.3821 30.8069 0.00525811
134 1 0.993788 1.39621 2.16415
2149 1 20.0029 20.5771 26.6796
4820 1 29.9601 30.8069 0.00521486
137 1 0.993788 5.2324 4.3907
435 1 2.80418 0.117485 8.84841
139 1 2.80418 3.95367 2.16415
140 1 1.89899 2.67494 0.00525739
141 1 4.61458 2.67494 0.00525735
142 1 0.993788 9.06858 6.61955
1532 1 21.8133 0.117495 13.3061
144 1 2.80418 7.78986 4.3907
145 1 1.89899 6.51113 2.16415
146 1 4.61458 6.51113 2.16415
147 1 3.70938 5.2324 0.00525717
148 1 6.42497 5.2324 0.00525727
149 1 0.993788 12.9048 8.84841
136 1 2.80418 0.117485 0.00525851
151 1 2.80418 11.6261 6.61955
152 1 1.89899 10.3473 4.3907
153 1 4.61458 10.3473 4.3907
154 1 3.70938 9.06858 2.16415
155 1 6.42497 9.06858 2.16415
156 1 5.51978 7.78986 0.00525726
157 1 8.23537 7.78986 0.00525747
158 1 0.993788 16.741 11.0773
8343 1 32.6757 0.117486 22.2217
160 1 2.80418 15.4622 8.84841
161 1 1.89899 14.1835 6.61955
162 1 4.61458 14.1835 6.61955
163 1 3.70938 12.9048 4.3907
164 1 6.42497 12.9048 4.3907
165 1 5.51978 11.6261 2.16415
166 1 8.23537 11.6261 2.16415
167 1 7.33017 10.3473 0.00525804
168 1 10.0458 10.3473 0.0052588
169 1 0.993788 20.5771 13.3061
7425 1 32.6757 30.8069 17.7639
171 1 2.80418 19.2984 11.0773
172 1 1.89899 18.0197 8.84841
173 1 4.61458 18.0197 8.84841
174 1 3.70938 16.741 6.61955
175 1 6.42497 16.741 6.61955
176 1 5.51978 15.4622 4.3907
177 1 8.23537 15.4622 4.3907
178 1 7.33017 14.1835 2.16415
179 1 10.0458 14.1835 2.16415
180 1 9.14057 12.9048 0.00525704
181 1 11.8562 12.9048 0.00525646
182 1 0.993788 24.4133 15.535
899 1 8.23537 61.4964 13.3061
184 1 2.80418 23.1346 13.3061
185 1 1.89899 21.8559 11.0773
186 1 4.61458 21.8559 11.0773
187 1 3.70938 20.5771 8.84841
188 1 6.42497 20.5771 8.84841
189 1 5.51978 19.2984 6.61955
190 1 8.23537 19.2984 6.61955
191 1 7.33017 18.0197 4.3907
192 1 10.0458 18.0197 4.3907
193 1 9.14057 16.741 2.16415
194 1 11.8562 16.741 2.16415
195 1 10.951 15.4622 0.00525847
196 1 13.6666 15.4622 0.00525662
197 1 0.993788 28.2495 17.7639
7346 1 32.6757 0.117646 0.00517733
199 1 2.80418 26.9708 15.535
200 1 1.89899 25.692 13.3061
201 1 4.61458 25.692 13.3061
202 1 3.70938 24.4133 11.0773
203 1 6.42497 24.4133 11.0773
204 1 5.51978 23.1346 8.84841
205 1 8.23537 23.1346 8.84841
206 1 7.33017 21.8559 6.61955
207 1 10.0458 21.8559 6.61955
208 1 9.14057 20.5771 4.3907
209 1 11.8562 20.5771 4.3907
210 1 10.951 19.2984 2.16415
211 1 13.6666 19.2984 2.16415
212 1 12.7614 18.0197 0.00525574
213 1 15.4769 18.0197 0.00525574
214 1 2.80418 30.8069 17.7639
215 1 1.89899 29.5282 15.535
216 1 4.61458 29.5282 15.535
217 1 3.70938 28.2495 13.3061
218 1 6.42497 28.2495 13.3061
219 1 5.51978 26.9708 11.0773
220 1 8.23537 26.9708 11.0773
221 1 7.33017 25.692 8.84841
222 1 10.0458 25.692 8.84841
223 1 9.14057 24.4133 6.61955
224 1 11.8562 24.4133 6.61955
225 1 10.951 23.1346 4.3907
226 1 13.6666 23.1346 4.3907
227 1 12.7614 21.8559 2.16415
228 1 15.4769 21.8559 2.16415
229 1 14.5717 20.5771 0.00525661
230 1 17.2873 20.5771 0.00525818
231 1 8.23537 30.8069 13.3061
232 1 7.33017 29.5282 11.0773
233 1 10.0458 29.5282 11.0773
234 1 9.14057 28.2495 8.84841
235 1 11.8562 28.2495 8.84841
236 1 10.951 26.9708 6.61955
237 1 13.6666 26.9708 6.61955
238 1 12.7614 25.692 4.3907
239 1 15.4769 25.692 4.3907
240 1 14.5717 24.4133 2.16415
241 1 17.2873 24.4133 2.16415
242 1 16.3821 23.1346 0.00525645
243 1 19.0977 23.1346 0.00525647
244 1 10.951 30.8069 8.84841
245 1 13.6666 30.8069 8.84841
246 1 12.7614 29.5282 6.61955
247 1 15.4769 29.5282 6.61955
248 1 14.5717 28.2495 4.3907
249 1 17.2873 28.2495 4.3907
250 1 16.3821 26.9708 2.16415
251 1 19.0977 26.9708 2.16415
252 1 18.1925 25.692 0.00525816
253 1 20.9081 25.692 0.00525808
254 1 19.0977 30.8069 4.3907
255 1 18.1925 29.5282 2.16415
256 1 20.9081 29.5282 2.16415
257 1 20.0029 28.2495 0.00525615
258 1 22.7185 28.2495 0.00525494
259 1 24.5289 30.8069 0.00524284
260 1 0.993789 1.39621 6.61955
913 1 10.951 0.117485 8.84841
1632 1 16.3821 0.117485 22.2217
263 1 0.993788 5.2324 8.84841
1633 1 19.0977 0.117485 22.2217
265 1 2.80418 3.95367 6.61955
266 1 1.89899 2.67494 4.3907
267 1 4.61458 2.67494 4.3907
268 1 3.70938 1.39621 2.16415
269 1 6.42497 1.39621 2.16415
5352 1 29.9601 30.8069 22.2217
11501 1 32.6757 30.8069 13.3062
272 1 0.993788 9.06858 11.0773
5315 1 24.5289 30.8069 22.2217
274 1 2.80418 7.78986 8.84841
275 1 1.89899 6.51113 6.61955
276 1 4.61458 6.51113 6.61955
277 1 3.70938 5.2324 4.3907
278 1 6.42497 5.2324 4.3907
279 1 5.51978 3.95367 2.16415
280 1 8.23537 3.95367 2.16415
281 1 7.33017 2.67494 0.00525732
282 1 10.0458 2.67494 0.0052581
283 1 0.993788 12.9048 13.3061
1380 1 21.8133 0.1175 8.84841
285 1 2.80418 11.6261 11.0773
286 1 1.89899 10.3473 8.84841
287 1 4.61458 10.3473 8.84841
288 1 3.70938 9.06858 6.61955
289 1 6.42497 9.06858 6.61955
290 1 5.51978 7.78986 4.3907
291 1 8.23537 7.78986 4.3907
292 1 7.33017 6.51113 2.16415
293 1 10.0458 6.51113 2.16415
294 1 9.14057 5.2324 0.0052579
295 1 11.8562 5.2324 0.00525732
296 1 0.993788 16.741 15.535
1185 1 21.8133 0.117498 4.3907
298 1 2.80418 15.4622 13.3061
299 1 1.89899 14.1835 11.0773
300 1 4.61458 14.1835 11.0773
301 1 3.70938 12.9048 8.84841
302 1 6.42497 12.9048 8.84841
303 1 5.51978 11.6261 6.61955
304 1 8.23537 11.6261 6.61955
305 1 7.33017 10.3473 4.3907
306 1 10.0458 10.3473 4.3907
307 1 9.14057 9.06858 2.16415
308 1 11.8562 9.06858 2.16415
309 1 10.951 7.78986 0.0052576
310 1 13.6666 7.78986 0.00525575
311 1 0.993788 20.5771 17.7639
7361 1 32.6757 11.6261 6.61955
313 1 2.80418 19.2984 15.535
314 1 1.89899 18.0197 13.3061
315 1 4.61458 18.0197 13.3061
316 1 3.70938 16.741 11.0773
317 1 6.42497 16.741 11.0773
318 1 5.51978 15.4622 8.84841
319 1 8.23537 15.4622 8.84841
320 1 7.33017 14.1835 6.61955
321 1 10.0458 14.1835 6.61955
322 1 9.14057 12.9048 4.3907
323 1 11.8562 12.9048 4.3907
324 1 10.951 11.6261 2.16415
325 1 13.6666 11.6261 2.16415
326 1 12.7614 10.3473 0.00525746
327 1 15.4769 10.3473 0.00525745
328 1 0.993788 24.4133 19.9928
7354 1 32.6757 7.78986 4.3907
330 1 2.80418 23.1346 17.7639
331 1 1.89899 21.8559 15.535
332 1 4.61458 21.8559 15.535
333 1 3.70938 20.5771 13.3061
334 1 6.42497 20.5771 13.3061
335 1 5.51978 19.2984 11.0773
336 1 8.23537 19.2984 11.0773
337 1 7.33017 18.0197 8.84841
338 1 10.0458 18.0197 8.84841
339 1 9.14057 16.741 6.61955
340 1 11.8562 16.741 6.61955
341 1 10.951 15.4622 4.3907
342 1 13.6666 15.4622 4.3907
343 1 12.7614 14.1835 2.16415
344 1 15.4769 14.1835 2.16415
345 1 14.5717 12.9048 0.00525489
346 1 17.2873 12.9048 0.00525646
347 1 0.993788 28.2495 22.2217
958 1 24.5289 0.117532 0.00523301
349 1 2.80418 26.9708 19.9928
350 1 1.89899 25.692 17.7639
351 1 4.61458 25.692 17.7639
352 1 3.70938 24.4133 15.535
353 1 6.42497 24.4133 15.535
354 1 5.51978 23.1346 13.3061
355 1 8.23537 23.1346 13.3061
356 1 7.33017 21.8559 11.0773
357 1 10.0458 21.8559 11.0773
358 1 9.14057 20.5771 8.84841
359 1 11.8562 20.5771 8.84841
360 1 10.951 19.2984 6.61955
361 1 13.6666 19.2984 6.61955
362 1 12.7614 18.0197 4.3907
363 1 15.4769 18.0197 4.3907
364 1 14.5717 16.741 2.16415
365 1 17.2873 16.741 2.16415
366 1 16.3821 15.4622 0.00525818
367 1 19.0977 15.4622 0.0052582
368 1 2.80418 30.8069 22.2217
369 1 1.89899 29.5282 19.9928
370 1 4.61458 29.5282 19.9928
371 1 3.70938 28.2495 17.7639
372 1 6.42497 28.2495 17.7639
373 1 5.51978 26.9708 15.535
374 1 8.23537 26.9708 15.535
375 1 7.33017 25.692 13.3061
376 1 10.0458 25.692 13.3061
377 1 9.14057 24.4133 11.0773
378 1 11.8562 24.4133 11.0773
379 1 10.951 23.1346 8.84841
380 1 13.6666 23.1346 8.84841
381 1 12.7614 21.8559 6.61955
382 1 15.4769 21.8559 6.61955
383 1 14.5717 20.5771 4.3907
384 1 17.2873 20.5771 4.3907
385 1 16.3821 19.2984 2.16415
386 1 19.0977 19.2984 2.16415
387 1 18.1925 18.0197 0.00525646
388 1 20.9081 18.0197 0.00525648
389 1 8.23537 30.8069 17.7639
390 1 7.33017 29.5282 15.535
391 1 10.0458 29.5282 15.535
392 1 9.14057 28.2495 13.3061
393 1 11.8562 28.2495 13.3061
394 1 10.951 26.9708 11.0773
395 1 13.6666 26.9708 11.0773
396 1 12.7614 25.692 8.84841
397 1 15.4769 25.692 8.84841
398 1 14.5717 24.4133 6.61955
399 1 17.2873 24.4133 6.61955
400 1 16.3821 23.1346 4.3907
401 1 19.0977 23.1346 4.3907
402 1 18.1925 21.8559 2.16415
403 1 20.9081 21.8559 2.16415
404 1 20.0029 20.5771 0.0052582
405 1 22.7185 20.5771 0.0052582
406 1 13.6666 30.8069 13.3061
407 1 12.7614 29.5282 11.0773
408 1 15.4769 29.5282 11.0773
409 1 14.5717 28.2495 8.84841
410 1 17.2873 28.2495 8.84841
411 1 16.3821 26.9708 6.61955
412 1 19.0977 26.9708 6.61955
413 1 18.1925 25.692 4.3907
414 1 20.9081 25.692 4.3907
415 1 20.0029 24.4133 2.16415
416 1 22.7185 24.4133 2.16415
417 1 21.8133 23.1346 0.00525647
418 1 24.5289 23.1346 0.00525646
419 1 19.0977 30.8069 8.84841
420 1 18.1925 29.5282 6.61955
421 1 20.9081 29.5282 6.61955
422 1 20.0029 28.2495 4.3907
423 1 22.7185 28.2495 4.3907
424 1 21.8133 26.9708 2.16415
425 1 24.5289 26.9708 2.16415
426 1 23.6237 25.692 0.00525799
427 1 26.3393 25.692 0.0052579
428 1 24.5289 30.8069 4.39069
429 1 23.6237 29.5282 2.16415
430 1 26.3393 29.5282 2.16414
431 1 25.4341 28.2495 0.00525341
432 1 28.1497 28.2495 0.00525177
433 1 0.993789 1.39621 11.0773
8101 1 32.6757 0.117504 17.7639
5314 1 21.8133 30.8069 22.2217
436 1 0.993788 5.2324 13.3061
7349 1 32.6757 3.95369 2.16414
438 1 2.80418 3.95367 11.0773
439 1 1.89899 2.67495 8.84841
440 1 4.61458 2.67494 8.84841
441 1 3.70938 1.39621 6.61955
442 1 6.42497 1.39621 6.61955
1641 1 24.5289 0.117493 17.7639
5249 1 21.8133 30.8069 17.7639
445 1 0.993788 9.06858 15.535
7473 1 32.6757 3.95374 6.61955
447 1 2.80418 7.78986 13.3061
448 1 1.89899 6.51113 11.0773
449 1 4.61458 6.51113 11.0773
450 1 3.70938 5.2324 8.84841
451 1 6.42497 5.2324 8.84841
452 1 5.51978 3.95367 6.61955
453 1 8.23537 3.95367 6.61955
454 1 7.33017 2.67494 4.3907
455 1 10.0458 2.67494 4.3907
456 1 9.14057 1.39621 2.16415
457 1 11.8562 1.39621 2.16415
5242 1 16.3821 30.8069 22.2217
1640 1 21.8133 0.117488 17.7639
460 1 0.993788 12.9048 17.7639
7307 1 32.6757 26.9708 11.0773
462 1 2.80418 11.6261 15.535
463 1 1.89899 10.3473 13.3061
464 1 4.61458 10.3473 13.3061
465 1 3.70938 9.06858 11.0773
466 1 6.42497 9.06858 11.0773
467 1 5.51978 7.78986 8.84841
468 1 8.23537 7.78986 8.84841
469 1 7.33017 6.51113 6.61955
470 1 10.0458 6.51113 6.61955
471 1 9.14057 5.2324 4.3907
472 1 11.8562 5.2324 4.3907
473 1 10.951 3.95367 2.16415
474 1 13.6666 3.95367 2.16415
475 1 12.7614 2.67494 0.00525676
476 1 15.4769 2.67494 0.00525673
477 1 0.993788 16.741 19.9928
7296 1 32.6757 23.1346 8.84841
479 1 2.80418 15.4622 17.7639
480 1 1.89899 14.1835 15.535
481 1 4.61458 14.1835 15.535
482 1 3.70938 12.9048 13.3061
483 1 6.42497 12.9048 13.3061
484 1 5.51978 11.6261 11.0773
485 1 8.23537 11.6261 11.0773
486 1 7.33017 10.3473 8.84841
487 1 10.0458 10.3473 8.84841
488 1 9.14057 9.06858 6.61955
489 1 11.8562 9.06858 6.61955
490 1 10.951 7.78986 4.3907
491 1 13.6666 7.78986 4.3907
492 1 12.7614 6.51113 2.16415
493 1 15.4769 6.51113 2.16415
494 1 14.5717 5.2324 0.00525575
495 1 17.2873 5.2324 0.00525732
496 1 0.993788 20.5771 22.2217
934 1 19.0977 0.117486 4.3907
498 1 2.80418 19.2984 19.9928
499 1 1.89899 18.0197 17.7639
500 1 4.61458 18.0197 17.7639
501 1 3.70938 16.741 15.535
502 1 6.42497 16.741 15.535
503 1 5.51978 15.4622 13.3061
504 1 8.23537 15.4622 13.3061
505 1 7.33017 14.1835 11.0773
506 1 10.0458 14.1835 11.0773
507 1 9.14057 12.9048 8.84841
508 1 11.8562 12.9048 8.84841
509 1 10.951 11.6261 6.61955
510 1 13.6666 11.6261 6.61955
511 1 12.7614 10.3473 4.3907
512 1 15.4769 10.3473 4.3907
513 1 14.5717 9.06858 2.16415
514 1 17.2873 9.06858 2.16415
515 1 16.3821 7.78986 0.00525731
516 1 19.0977 7.78986 0.00525733
517 1 0.993788 24.4133 24.4507
957 1 21.8133 0.117491 0.00525389
519 1 2.80418 23.1346 22.2217
520 1 1.89899 21.8559 19.9928
521 1 4.61458 21.8559 19.9928
522 1 3.70938 20.5771 17.7639
523 1 6.42497 20.5771 17.7639
524 1 5.51978 19.2984 15.535
525 1 8.23537 19.2984 15.535
526 1 7.33017 18.0197 13.3061
527 1 10.0458 18.0197 13.3061
528 1 9.14057 16.741 11.0773
529 1 11.8562 16.741 11.0773
530 1 10.951 15.4622 8.84841
531 1 13.6666 15.4622 8.84841
532 1 12.7614 14.1835 6.61955
533 1 15.4769 14.1835 6.61955
534 1 14.5717 12.9048 4.3907
535 1 17.2873 12.9048 4.3907
536 1 16.3821 11.6261 2.16415
537 1 19.0977 11.6261 2.16415
538 1 18.1925 10.3473 0.00525817
539 1 20.9081 10.3473 0.00525819
7287 1 32.6757 19.2984 6.61955
541 1 2.80418 26.9708 24.4507
542 1 1.89899 25.692 22.2217
543 1 4.61458 25.692 22.2217
544 1 3.70938 24.4133 19.9928
545 1 6.42497 24.4133 19.9928
546 1 5.51978 23.1346 17.7639
547 1 8.23537 23.1346 17.7639
548 1 7.33017 21.8559 15.535
549 1 10.0458 21.8559 15.535
550 1 9.14057 20.5771 13.3061
551 1 11.8562 20.5771 13.3061
552 1 10.951 19.2984 11.0773
553 1 13.6666 19.2984 11.0773
554 1 12.7614 18.0197 8.84841
555 1 15.4769 18.0197 8.84841
556 1 14.5717 16.741 6.61955
557 1 17.2873 16.741 6.61955
558 1 16.3821 15.4622 4.3907
559 1 19.0977 15.4622 4.3907
560 1 18.1925 14.1835 2.16415
561 1 20.9081 14.1835 2.16415
562 1 20.0029 12.9048 0.00525648
563 1 22.7185 12.9048 0.00525648
564 1 1.89899 29.5282 24.4507
565 1 4.61458 29.5282 24.4507
566 1 3.70938 28.2495 22.2217
567 1 6.42497 28.2495 22.2217
568 1 5.51978 26.9708 19.9928
569 1 8.23537 26.9708 19.9928
570 1 7.33017 25.692 17.7639
571 1 10.0458 25.692 17.7639
572 1 9.14057 24.4133 15.535
573 1 11.8562 24.4133 15.535
574 1 10.951 23.1346 13.3061
575 1 13.6666 23.1346 13.3061
576 1 12.7614 21.8559 11.0773
577 1 15.4769 21.8559 11.0773
578 1 14.5717 20.5771 8.84841
579 1 17.2873 20.5771 8.84841
580 1 16.3821 19.2984 6.61955
581 1 19.0977 19.2984 6.61955
582 1 18.1925 18.0197 4.3907
583 1 20.9081 18.0197 4.3907
584 1 20.0029 16.741 2.16415
585 1 22.7185 16.741 2.16415
586 1 21.8133 15.4622 0.0052582
587 1 24.5289 15.4622 0.0052582
588 1 7.33017 29.5282 19.9928
589 1 10.0458 29.5282 19.9928
590 1 9.14057 28.2495 17.7639
591 1 11.8562 28.2495 17.7639
592 1 10.951 26.9708 15.535
593 1 13.6666 26.9708 15.535
594 1 12.7614 25.692 13.3061
595 1 15.4769 25.692 13.3061
596 1 14.5717 24.4133 11.0773
597 1 17.2873 24.4133 11.0773
598 1 16.3821 23.1346 8.84841
599 1 19.0977 23.1346 8.84841
600 1 18.1925 21.8559 6.61955
601 1 20.9081 21.8559 6.61955
602 1 20.0029 20.5771 4.3907
603 1 22.7185 20.5771 4.3907
604 1 21.8133 19.2984 2.16415
605 1 24.5289 19.2984 2.16415
606 1 23.6237 18.0197 0.00525648
607 1 26.3393 18.0197 0.00525648
608 1 12.7614 29.5282 15.535
609 1 15.4769 29.5282 15.535
610 1 14.5717 28.2495 13.3061
611 1 17.2873 28.2495 13.3061
612 1 16.3821 26.9708 11.0773
613 1 19.0977 26.9708 11.0773
614 1 18.1925 25.692 8.84841
615 1 20.9081 25.692 8.84841
616 1 20.0029 24.4133 6.61955
617 1 22.7185 24.4133 6.61955
618 1 21.8133 23.1346 4.3907
619 1 24.5289 23.1346 4.3907
620 1 23.6237 21.8559 2.16415
621 1 26.3393 21.8559 2.16415
622 1 25.4341 20.5771 0.0052582
623 1 28.1497 20.5771 0.0052582
624 1 18.1925 29.5282 11.0773
625 1 20.9081 29.5282 11.0773
626 1 20.0029 28.2495 8.84841
627 1 22.7185 28.2495 8.84841
628 1 21.8133 26.9708 6.61955
629 1 24.5289 26.9708 6.61955
630 1 23.6237 25.692 4.3907
631 1 26.3393 25.692 4.3907
632 1 25.4341 24.4133 2.16415
633 1 28.1497 24.4133 2.16415
634 1 27.2445 23.1346 0.00525646
635 1 29.9601 23.1346 0.00525646
636 1 23.6237 29.5282 6.61955
637 1 26.3393 29.5282 6.61955
638 1 25.4341 28.2495 4.3907
639 1 28.1497 28.2495 4.3907
640 1 27.2445 26.9708 2.16415
641 1 29.9601 26.9708 2.16415
642 1 29.0549 25.692 0.00525783
643 1 31.7705 25.692 0.00525781
644 1 29.0549 29.5282 2.16413
645 1 31.7705 29.5282 2.16412
646 1 30.8653 28.2495 0.00525033
647 1 0.993789 1.39621 15.535
1137 1 5.51978 61.4964 17.7639
5142 1 24.5289 30.8069 13.3061
650 1 0.993788 5.2324 17.7639
1138 1 8.23537 0.117485 17.7639
652 1 2.80418 3.95367 15.535
653 1 1.89899 2.67494 13.3061
654 1 4.61458 2.67494 13.3061
655 1 3.70938 1.39621 11.0773
656 1 6.42497 1.39621 11.0773
5130 1 19.0977 30.8069 17.7639
1149 1 10.951 0.117485 13.3061
659 1 0.993788 9.06858 19.9928
1166 1 19.0977 0.117486 8.84841
661 1 2.80418 7.78986 17.7639
662 1 1.89899 6.51113 15.535
663 1 4.61458 6.51113 15.535
664 1 3.70938 5.2324 13.3061
665 1 6.42497 5.2324 13.3061
666 1 5.51978 3.95367 11.0773
667 1 8.23537 3.95367 11.0773
668 1 7.33017 2.67494 8.84841
669 1 10.0458 2.67494 8.84841
670 1 9.14057 1.39621 6.61955
671 1 11.8562 1.39621 6.61955
4992 1 24.5289 30.8069 8.84842
4991 1 21.8133 30.8069 8.84841
674 1 0.993788 12.9048 22.2217
1186 1 24.5289 0.11756 4.39069
676 1 2.80418 11.6261 19.9928
677 1 1.89899 10.3473 17.7639
678 1 4.61458 10.3473 17.7639
679 1 3.70938 9.06858 15.535
680 1 6.42497 9.06858 15.535
681 1 5.51978 7.78986 13.3061
682 1 8.23537 7.78986 13.3061
683 1 7.33017 6.51113 11.0773
684 1 10.0458 6.51113 11.0773
685 1 9.14057 5.2324 8.84841
686 1 11.8562 5.2324 8.84841
687 1 10.951 3.95367 6.61955
688 1 13.6666 3.95367 6.61955
689 1 12.7614 2.67495 4.3907
690 1 15.4769 2.67494 4.3907
691 1 14.5717 1.39621 2.16415
692 1 17.2873 1.39621 2.16415
1209 1 27.2445 0.117578 0.00520781
4976 1 19.0977 30.8069 13.3061
695 1 0.993788 16.741 24.4507
7275 1 32.6757 11.6261 2.16415
697 1 2.80418 15.4622 22.2217
698 1 1.89899 14.1835 19.9928
699 1 4.61458 14.1835 19.9928
700 1 3.70938 12.9048 17.7639
701 1 6.42497 12.9048 17.7639
702 1 5.51978 11.6261 15.535
703 1 8.23537 11.6261 15.535
704 1 7.33017 10.3473 13.3061
705 1 10.0458 10.3473 13.3061
706 1 9.14057 9.06858 11.0773
707 1 11.8562 9.06858 11.0773
708 1 10.951 7.78986 8.84841
709 1 13.6666 7.78986 8.84841
710 1 12.7614 6.51113 6.61955
711 1 15.4769 6.51113 6.61955
712 1 14.5717 5.2324 4.3907
713 1 17.2873 5.2324 4.3907
714 1 16.3821 3.95367 2.16415
715 1 19.0977 3.95367 2.16415
716 1 18.1925 2.67494 0.00525742
717 1 20.9081 2.67494 0.00525707
1400 1 27.2444 0.117724 4.39066
719 1 2.80418 19.2984 24.4507
720 1 1.89899 18.0197 22.2217
721 1 4.61458 18.0197 22.2217
722 1 3.70938 16.741 19.9928
723 1 6.42497 16.741 19.9928
724 1 5.51978 15.4622 17.7639
725 1 8.23537 15.4622 17.7639
726 1 7.33017 14.1835 15.535
727 1 10.0458 14.1835 15.535
728 1 9.14057 12.9048 13.3061
729 1 11.8562 12.9048 13.3061
730 1 10.951 11.6261 11.0773
731 1 13.6666 11.6261 11.0773
732 1 12.7614 10.3473 8.84841
733 1 15.4769 10.3473 8.84841
734 1 14.5717 9.06858 6.61955
735 1 17.2873 9.06858 6.61955
736 1 16.3821 7.78986 4.3907
737 1 19.0977 7.78986 4.3907
738 1 18.1925 6.51113 2.16415
739 1 20.9081 6.51113 2.16415
740 1 20.0029 5.2324 0.00525733
741 1 22.7185 5.2324 0.00525694
742 1 1.89899 21.8559 24.4507
743 1 4.61458 21.8559 24.4507
744 1 3.70938 20.5771 22.2217
745 1 6.42497 20.5771 22.2217
746 1 5.51978 19.2984 19.9928
747 1 8.23537 19.2984 19.9928
748 1 7.33017 18.0197 17.7639
749 1 10.0458 18.0197 17.7639
750 1 9.14057 16.741 15.535
751 1 11.8562 16.741 15.535
752 1 10.951 15.4622 13.3061
753 1 13.6666 15.4622 13.3061
754 1 12.7614 14.1835 11.0773
755 1 15.4769 14.1835 11.0773
756 1 14.5717 12.9048 8.84841
757 1 17.2873 12.9048 8.84841
758 1 16.3821 11.6261 6.61955
759 1 19.0977 11.6261 6.61955
760 1 18.1925 10.3473 4.3907
761 1 20.9081 10.3473 4.3907
762 1 20.0029 9.06858 2.16415
763 1 22.7185 9.06858 2.16415
764 1 21.8133 7.78986 0.0052573
765 1 24.5289 7.78986 0.0052573
766 1 3.70938 24.4133 24.4507
767 1 6.42497 24.4133 24.4507
768 1 5.51978 23.1346 22.2217
769 1 8.23537 23.1346 22.2217
770 1 7.33017 21.8559 19.9928
771 1 10.0458 21.8559 19.9928
772 1 9.14057 20.5771 17.7639
773 1 11.8562 20.5771 17.7639
774 1 10.951 19.2984 15.535
775 1 13.6666 19.2984 15.535
776 1 12.7614 18.0197 13.3061
777 1 15.4769 18.0197 13.3061
778 1 14.5717 16.741 11.0773
779 1 17.2873 16.741 11.0773
780 1 16.3821 15.4622 8.84841
781 1 19.0977 15.4622 8.84841
782 1 18.1925 14.1835 6.61955
783 1 20.9081 14.1835 6.61955
784 1 20.0029 12.9048 4.3907
785 1 22.7185 12.9048 4.3907
786 1 21.8133 11.6261 2.16415
787 1 24.5289 11.6261 2.16415
788 1 23.6237 10.3473 0.00525819
789 1 26.3393 10.3473 0.00525819
790 1 5.51978 26.9708 24.4507
791 1 8.23537 26.9708 24.4507
792 1 7.33017 25.692 22.2217
793 1 10.0458 25.692 22.2217
794 1 9.14057 24.4133 19.9928
795 1 11.8562 24.4133 19.9928
796 1 10.951 23.1346 17.7639
797 1 13.6666 23.1346 17.7639
798 1 12.7614 21.8559 15.535
799 1 15.4769 21.8559 15.535
800 1 14.5717 20.5771 13.3061
801 1 17.2873 20.5771 13.3061
802 1 16.3821 19.2984 11.0773
803 1 19.0977 19.2984 11.0773
804 1 18.1925 18.0197 8.84841
805 1 20.9081 18.0197 8.84841
806 1 20.0029 16.741 6.61955
807 1 22.7185 16.741 6.61955
808 1 21.8133 15.4622 4.3907
809 1 24.5289 15.4622 4.3907
810 1 23.6237 14.1835 2.16415
811 1 26.3393 14.1835 2.16415
812 1 25.4341 12.9048 0.00525648
813 1 28.1497 12.9048 0.00525648
814 1 7.33017 29.5282 24.4507
815 1 10.0458 29.5282 24.4507
816 1 9.14057 28.2495 22.2217
817 1 11.8562 28.2495 22.2217
818 1 10.951 26.9708 19.9928
819 1 13.6666 26.9708 19.9928
820 1 12.7614 25.692 17.7639
821 1 15.4769 25.692 17.7639
822 1 14.5717 24.4133 15.535
823 1 17.2873 24.4133 15.535
824 1 16.3821 23.1346 13.3061
825 1 19.0977 23.1346 13.3061
826 1 18.1925 21.8559 11.0773
827 1 20.9081 21.8559 11.0773
828 1 20.0029 20.5771 8.84841
829 1 22.7185 20.5771 8.84841
830 1 21.8133 19.2984 6.61955
831 1 24.5289 19.2984 6.61955
832 1 23.6237 18.0197 4.3907
833 1 26.3393 18.0197 4.3907
834 1 25.4341 16.741 2.16415
835 1 28.1497 16.741 2.16415
836 1 27.2445 15.4622 0.0052582
837 1 29.9601 15.4622 0.0052582
838 1 10.951 30.8069 22.2217
839 1 13.6666 30.8069 22.2217
840 1 12.7614 29.5282 19.9928
841 1 15.4769 29.5282 19.9928
842 1 14.5717 28.2495 17.7639
843 1 17.2873 28.2495 17.7639
844 1 16.3821 26.9708 15.535
845 1 19.0977 26.9708 15.535
846 1 18.1925 25.692 13.3061
847 1 20.9081 25.692 13.3061
848 1 20.0029 24.4133 11.0773
849 1 22.7185 24.4133 11.0773
850 1 21.8133 23.1346 8.84841
851 1 24.5289 23.1346 8.84841
852 1 23.6237 21.8559 6.61955
853 1 26.3393 21.8559 6.61955
854 1 25.4341 20.5771 4.3907
855 1 28.1497 20.5771 4.3907
856 1 27.2445 19.2984 2.16415
857 1 29.9601 19.2984 2.16415
858 1 29.0549 18.0197 0.00525648
859 1 31.7705 18.0197 0.00525648
860 1 16.3821 30.8069 17.7639
861 1 18.1925 29.5282 15.535
862 1 20.9081 29.5282 15.535
863 1 20.0029 28.2495 13.3061
864 1 22.7185 28.2495 13.3061
865 1 21.8133 26.9708 11.0773
866 1 24.5289 26.9708 11.0773
867 1 23.6237 25.692 8.84841
868 1 26.3393 25.692 8.84841
869 1 25.4341 24.4133 6.61955
870 1 28.1497 24.4133 6.61955
871 1 27.2445 23.1346 4.3907
872 1 29.9601 23.1346 4.3907
873 1 29.0549 21.8559 2.16415
874 1 31.7705 21.8559 2.16415
875 1 30.8653 20.5771 0.0052582
876 1 23.6237 29.5282 11.0773
877 1 26.3393 29.5282 11.0773
878 1 25.4341 28.2495 8.84841
879 1 28.1497 28.2495 8.84842
880 1 27.2445 26.9708 6.61955
881 1 29.9601 26.9707 6.61955
882 1 29.0549 25.692 4.3907
883 1 31.7705 25.692 4.3907
884 1 30.8653 24.4133 2.16415
885 1 29.0549 29.5281 6.61955
886 1 31.7705 29.5281 6.61955
887 1 30.8653 28.2495 4.39069
888 1 0.993788 1.39621 19.9928
1365 1 19.0977 0.117485 13.3061
4975 1 16.3821 30.8069 13.3061
891 1 0.993788 5.2324 22.2217
7224 1 32.6757 30.8067 4.39066
893 1 2.80418 3.95367 19.9928
894 1 1.89899 2.67494 17.7639
895 1 4.61458 2.67494 17.7639
896 1 3.70938 1.39621 15.535
897 1 6.42497 1.39621 15.535
4964 1 13.6666 30.8069 17.7639
4963 1 10.951 30.8069 17.7639
900 1 0.993788 9.06858 24.4507
7248 1 32.6757 26.9707 6.61955
902 1 2.80418 7.78986 22.2217
903 1 1.89899 6.51113 19.9928
904 1 4.61458 6.51113 19.9928
905 1 3.70938 5.2324 17.7639
906 1 6.42497 5.2324 17.7639
907 1 5.51978 3.95367 15.535
908 1 8.23537 3.95367 15.535
909 1 7.33017 2.67494 13.3061
910 1 10.0458 2.67494 13.3061
911 1 9.14057 1.39621 11.0773
912 1 11.8562 1.39621 11.0773
4956 1 8.23537 30.8069 22.2217
4955 1 5.51978 30.8069 22.2217
1714 1 29.9601 0.117503 17.7639
916 1 2.80418 11.6261 24.4507
917 1 1.89899 10.3473 22.2217
918 1 4.61458 10.3473 22.2217
919 1 3.70938 9.06858 19.9928
920 1 6.42497 9.06858 19.9928
921 1 5.51978 7.78986 17.7639
922 1 8.23537 7.78986 17.7639
923 1 7.33017 6.51113 15.535
924 1 10.0458 6.51113 15.535
925 1 9.14057 5.2324 13.3061
926 1 11.8562 5.2324 13.3061
927 1 10.951 3.95367 11.0773
928 1 13.6666 3.95367 11.0773
929 1 12.7614 2.67495 8.84841
930 1 15.4769 2.67494 8.84841
931 1 14.5717 1.39621 6.61955
932 1 17.2873 1.39621 6.61955
1513 1 13.6666 61.4964 22.2217
4796 1 21.8133 30.8069 4.3907
935 1 1.89899 14.1835 24.4507
936 1 4.61458 14.1835 24.4507
937 1 3.70938 12.9048 22.2217
938 1 6.42497 12.9048 22.2217
939 1 5.51978 11.6261 19.9928
940 1 8.23537 11.6261 19.9928
941 1 7.33017 10.3473 17.7639
942 1 10.0458 10.3473 17.7639
943 1 9.14057 9.06858 15.535
944 1 11.8562 9.06858 15.535
945 1 10.951 7.78986 13.3061
946 1 13.6666 7.78986 13.3061
947 1 12.7614 6.51113 11.0773
948 1 15.4769 6.51113 11.0773
949 1 14.5717 5.2324 8.84841
950 1 17.2873 5.2324 8.84841
951 1 16.3821 3.95367 6.61955
952 1 19.0977 3.95367 6.61955
953 1 18.1925 2.67494 4.3907
954 1 20.9081 2.67495 4.3907
955 1 20.0029 1.39621 2.16415
956 1 22.7185 1.39622 2.16415
4777 1 16.3821 30.8069 8.84841
4762 1 10.951 30.8069 13.3061
959 1 3.70938 16.741 24.4507
960 1 6.42497 16.741 24.4507
961 1 5.51978 15.4622 22.2217
962 1 8.23537 15.4622 22.2217
963 1 7.33017 14.1835 19.9928
964 1 10.0458 14.1835 19.9928
965 1 9.14057 12.9048 17.7639
966 1 11.8562 12.9048 17.7639
967 1 10.951 11.6261 15.535
968 1 13.6666 11.6261 15.535
969 1 12.7614 10.3473 13.3061
970 1 15.4769 10.3473 13.3061
971 1 14.5717 9.06858 11.0773
972 1 17.2873 9.06858 11.0773
973 1 16.3821 7.78986 8.84841
974 1 19.0977 7.78986 8.84841
975 1 18.1925 6.51113 6.61955
976 1 20.9081 6.51113 6.61955
977 1 20.0029 5.2324 4.3907
978 1 22.7185 5.2324 4.3907
979 1 21.8133 3.95367 2.16415
980 1 24.5289 3.95368 2.16415
981 1 23.6237 2.67495 0.00525338
982 1 26.3393 2.67496 0.00524976
983 1 5.51978 19.2984 24.4507
984 1 8.23537 19.2984 24.4507
985 1 7.33017 18.0197 22.2217
986 1 10.0458 18.0197 22.2217
987 1 9.14057 16.741 19.9928
988 1 11.8562 16.741 19.9928
989 1 10.951 15.4622 17.7639