ITEM: TIMESTEP
0
ITEM: NUMBER OF ATOMS
68950
ITEM: BOX BOUNDS pp pp pp
-3.5215275199999996e+02 3.5215275199999996e+02
-3.5215275199999996e+02 3.5215275199999996e+02
0.0000000000000000e+00 4.4019093999999996e+01
ITEM: ATOMS id type x y z
1 1 -14.149 -86.4661 1.57211
2 1 -11.0048 -86.4661 1.57211
3 1 -7.86055 -86.4661 1.57211
4 1 -4.71633 -86.4661 1.57211
5 1 -1.57211 -86.4661 1.57211
6 1 -26.7259 -83.3219 1.57211
7 1 -23.5817 -83.3219 1.57211
8 1 -22.0095 -84.894 0
9 1 -20.4374 -83.3219 1.57211
10 1 -18.8653 -84.894 0
11 1 -17.2932 -83.3219 1.57211
12 1 -15.7211 -84.894 0
13 1 -14.149 -83.3219 1.57211
14 1 -12.5769 -84.894 0
15 1 -11.0048 -83.3219 1.57211
16 1 -9.43266 -84.894 0
17 1 -7.86055 -83.3219 1.57211
18 1 -6.28844 -84.894 0
19 1 -4.71633 -83.3219 1.57211
20 1 -3.14422 -84.894 0
21 1 -1.57211 -83.3219 1.57211
22 1 -36.1585 -80.1776 1.57211
23 1 -33.0143 -80.1776 1.57211
24 1 -31.4422 -81.7497 0
25 1 -29.8701 -80.1776 1.57211
26 1 -28.298 -81.7497 0
27 1 -26.7259 -80.1776 1.57211
28 1 -25.1538 -81.7497 0
29 1 -23.5817 -80.1776 1.57211
30 1 -22.0095 -81.7497 0
31 1 -20.4374 -80.1776 1.57211
32 1 -18.8653 -81.7497 0
33 1 -17.2932 -80.1776 1.57211
34 1 -15.7211 -81.7497 0
35 1 -14.149 -80.1776 1.57211
36 1 -12.5769 -81.7497 0
37 1 -11.0048 -80.1776 1.57211
38 1 -9.43266 -81.7497 0
39 1 -7.86055 -80.1776 1.57211
40 1 -6.28844 -81.7497 0
41 1 -4.71633 -80.1776 1.57211
42 1 -3.14422 -81.7497 0
43 1 -1.57211 -80.1776 1.57211
44 1 -42.447 -77.0334 1.57211
45 1 -39.3028 -77.0334 1.57211
46 1 -37.7307 -78.6055 0
47 1 -36.1585 -77.0334 1.57211
48 1 -34.5864 -78.6055 0
49 1 -33.0143 -77.0334 1.57211
50 1 -31.4422 -78.6055 0
51 1 -29.8701 -77.0334 1.57211
52 1 -28.298 -78.6055 0
53 1 -26.7259 -77.0334 1.57211
54 1 -25.1538 -78.6055 0
55 1 -23.5817 -77.0334 1.57211
56 1 -22.0095 -78.6055 0
57 1 -20.4374 -77.0334 1.57211
58 1 -18.8653 -78.6055 0
59 1 -17.2932 -77.0334 1.57211
60 1 -15.7211 -78.6055 0
61 1 -14.149 -77.0334 1.57211
62 1 -12.5769 -78.6055 0
63 1 -11.0048 -77.0334 1.57211
64 1 -9.43266 -78.6055 0
65 1 -7.86055 -77.0334 1.57211
66 1 -6.28844 -78.6055 0
67 1 -4.71633 -77.0334 1.57211
68 1 -3.14422 -78.6055 0
69 1 -1.57211 -77.0334 1.57211
70 1 -45.5912 -73.8892 1.57211
71 1 -44.0191 -75.4613 0
72 1 -42.447 -73.8892 1.57211
73 1 -40.8749 -75.4613 0
74 1 -39.3028 -73.8892 1.57211
75 1 -37.7307 -75.4613 0
76 1 -36.1585 -73.8892 1.57211
77 1 -34.5864 -75.4613 0
78 1 -33.0143 -73.8892 1.57211
79 1 -31.4422 -75.4613 0
80 1 -29.8701 -73.8892 1.57211
81 1 -28.298 -75.4613 0
82 1 -26.7259 -73.8892 1.57211
83 1 -25.1538 -75.4613 0
84 1 -23.5817 -73.8892 1.57211
85 1 -22.0095 -75.4613 0
86 1 -20.4374 -73.8892 1.57211
87 1 -18.8653 -75.4613 0
88 1 -17.2932 -73.8892 1.57211
89 1 -15.7211 -75.4613 0
90 1 -14.149 -73.8892 1.57211
91 1 -12.5769 -75.4613 0
92 1 -11.0048 -73.8892 1.57211
93 1 -9.43266 -75.4613 0
94 1 -7.86055 -73.8892 1.57211
95 1 -6.28844 -75.4613 0
96 1 -4.71633 -73.8892 1.57211
97 1 -3.14422 -75.4613 0
98 1 -1.57211 -73.8892 1.57211
99 1 -51.8796 -70.745 1.57211
100 1 -48.7354 -70.745 1.57211
101 1 -47.1633 -72.3171 0
102 1 -45.5912 -70.745 1.57211
103 1 -44.0191 -72.3171 0
104 1 -42.447 -70.745 1.57211
105 1 -40.8749 -72.3171 0
106 1 -39.3028 -70.745 1.57211
107 1 -37.7307 -72.3171 0
108 1 -36.1585 -70.745 1.57211
109 1 -34.5864 -72.3171 0
110 1 -33.0143 -70.745 1.57211
111 1 -31.4422 -72.3171 0
112 1 -29.8701 -70.745 1.57211
113 1 -28.298 -72.3171 0
114 1 -26.7259 -70.745 1.57211
115 1 -25.1538 -72.3171 0
116 1 -23.5817 -70.745 1.57211
117 1 -22.0095 -72.3171 0
118 1 -20.4374 -70.745 1.57211
119 1 -18.8653 -72.3171 0
120 1 -17.2932 -70.745 1.57211
121 1 -15.7211 -72.3171 0
122 1 -14.149 -70.745 1.57211
123 1 -12.5769 -72.3171 0
124 1 -11.0048 -70.745 1.57211
125 1 -9.43266 -72.3171 0
126 1 -7.86055 -70.745 1.57211
127 1 -6.28844 -72.3171 0
128 1 -4.71633 -70.745 1.57211
129 1 -3.14422 -72.3171 0
130 1 -1.57211 -70.745 1.57211
131 1 -55.0239 -67.6008 1.57211
132 1 -53.4518 -69.1729 0
133 1 -51.8796 -67.6008 1.57211
134 1 -50.3075 -69.1729 0
135 1 -48.7354 -67.6008 1.57211
136 1 -47.1633 -69.1729 0
137 1 -45.5912 -67.6008 1.57211
138 1 -44.0191 -69.1729 0
139 1 -42.447 -67.6008 1.57211
140 1 -40.8749 -69.1729 0
141 1 -39.3028 -67.6008 1.57211
142 1 -37.7307 -69.1729 0
143 1 -36.1585 -67.6008 1.57211
144 1 -34.5864 -69.1729 0
145 1 -33.0143 -67.6008 1.57211
146 1 -31.4422 -69.1729 0
147 1 -29.8701 -67.6008 1.57211
148 1 -28.298 -69.1729 0
149 1 -26.7259 -67.6008 1.57211
150 1 -25.1538 -69.1729 0
151 1 -23.5817 -67.6008 1.57211
152 1 -22.0095 -69.1729 0
153 1 -20.4374 -67.6008 1.57211
154 1 -18.8653 -69.1729 0
155 1 -17.2932 -67.6008 1.57211
156 1 -15.7211 -69.1729 0
157 1 -14.149 -67.6008 1.57211
158 1 -12.5769 -69.1729 0
159 1 -11.0048 -67.6008 1.57211
160 1 -9.43266 -69.1729 0
161 1 -7.86055 -67.6008 1.57211
162 1 -6.28844 -69.1729 0
163 1 -4.71633 -67.6008 1.57211
164 1 -3.14422 -69.1729 0
165 1 -1.57211 -67.6008 1.57211
166 1 -58.1681 -64.4565 1.57211
167 1 -56.596 -66.0286 0
168 1 -55.0239 -64.4565 1.57211
169 1 -53.4518 -66.0286 0
170 1 -51.8796 -64.4565 1.57211
171 1 -50.3075 -66.0286 0
172 1 -48.7354 -64.4565 1.57211
173 1 -47.1633 -66.0286 0
174 1 -45.5912 -64.4565 1.57211
175 1 -44.0191 -66.0286 0
176 1 -42.447 -64.4565 1.57211
177 1 -40.8749 -66.0286 0
178 1 -39.3028 -64.4565 1.57211
179 1 -37.7307 -66.0286 0
180 1 -36.1585 -64.4565 1.57211
181 1 -34.5864 -66.0286 0
182 1 -33.0143 -64.4565 1.57211
183 1 -31.4422 -66.0286 0
184 1 -29.8701 -64.4565 1.57211
185 1 -28.298 -66.0286 0
186 1 -26.7259 -64.4565 1.57211
187 1 -25.1538 -66.0286 0
188 1 -23.5817 -64.4565 1.57211
189 1 -22.0095 -66.0286 0
190 1 -20.4374 -64.4565 1.57211
191 1 -18.8653 -66.0286 0
192 1 -17.2932 -64.4565 1.57211
193 1 -15.7211 -66.0286 0
194 1 -14.149 -64.4565 1.57211
195 1 -12.5769 -66.0286 0
196 1 -11.0048 -64.4565 1.57211
197 1 -9.43266 -66.0286 0
198 1 -7.86055 -64.4565 1.57211
199 1 -6.28844 -66.0286 0
200 1 -4.71633 -64.4565 1.57211
201 1 -3.14422 -66.0286 0
202 1 -1.57211 -64.4565 1.57211
203 1 -61.3123 -61.3123 1.57211
204 1 -59.7402 -62.8844 0
205 1 -58.1681 -61.3123 1.57211
206 1 -56.596 -62.8844 0
207 1 -55.0239 -61.3123 1.57211
208 1 -53.4518 -62.8844 0
209 1 -51.8796 -61.3123 1.57211
210 1 -50.3075 -62.8844 0
211 1 -48.7354 -61.3123 1.57211
212 1 -47.1633 -62.8844 0
213 1 -45.5912 -61.3123 1.57211
214 1 -44.0191 -62.8844 0
215 1 -42.447 -61.3123 1.57211
216 1 -40.8749 -62.8844 0
217 1 -39.3028 -61.3123 1.57211
218 1 -37.7307 -62.8844 0
219 1 -36.1585 -61.3123 1.57211
220 1 -34.5864 -62.8844 0
221 1 -33.0143 -61.3123 1.57211
222 1 -31.4422 -62.8844 0
223 1 -29.8701 -61.3123 1.57211
224 1 -28.298 -62.8844 0
225 1 -26.7259 -61.3123 1.57211
226 1 -25.1538 -62.8844 0
227 1 -23.5817 -61.3123 1.57211
228 1 -22.0095 -62.8844 0
229 1 -20.4374 -61.3123 1.57211
230 1 -18.8653 -62.8844 0
231 1 -17.2932 -61.3123 1.57211
232 1 -15.7211 -62.8844 0
233 1 -14.149 -61.3123 1.57211
234 1 -12.5769 -62.8844 0
235 1 -11.0048 -61.3123 1.57211
236 1 -9.43266 -62.8844 0
237 1 -7.86055 -61.3123 1.57211
238 1 -6.28844 -62.8844 0
239 1 -4.71633 -61.3123 1.57211
240 1 -3.14422 -62.8844 0
241 1 -1.57211 -61.3123 1.57211
242 1 -64.4565 -58.1681 1.57211
243 1 -62.8844 -59.7402 0
244 1 -61.3123 -58.1681 1.57211
245 1 -59.7402 -59.7402 0
246 1 -58.1681 -58.1681 1.57211
247 1 -56.596 -59.7402 0
248 1 -55.0239 -58.1681 1.57211
249 1 -53.4518 -59.7402 0
250 1 -51.8796 -58.1681 1.57211
251 1 -50.3075 -59.7402 0
252 1 -48.7354 -58.1681 1.57211
253 1 -47.1633 -59.7402 0
254 1 -45.5912 -58.1681 1.57211
255 1 -44.0191 -59.7402 0
256 1 -42.447 -58.1681 1.57211
257 1 -40.8749 -59.7402 0
258 1 -39.3028 -58.1681 1.57211
259 1 -37.7307 -59.7402 0
260 1 -36.1585 -58.1681 1.57211
261 1 -34.5864 -59.7402 0
262 1 -33.0143 -58.1681 1.57211
263 1 -31.4422 -59.7402 0
264 1 -29.8701 -58.1681 1.57211
265 1 -28.298 -59.7402 0
266 1 -26.7259 -58.1681 1.57211
267 1 -25.1538 -59.7402 0
268 1 -23.5817 -58.1681 1.57211
269 1 -22.0095 -59.7402 0
270 1 -20.4374 -58.1681 1.57211
271 1 -18.8653 -59.7402 0
272 1 -17.2932 -58.1681 1.57211
273 1 -15.7211 -59.7402 0
274 1 -14.149 -58.1681 1.57211
275 1 -12.5769 -59.7402 0
276 1 -11.0048 -58.1681 1.57211
277 1 -9.43266 -59.7402 0
278 1 -7.86055 -58.1681 1.57211
279 1 -6.28844 -59.7402 0
280 1 -4.71633 -58.1681 1.57211
281 1 -3.14422 -59.7402 0
282 1 -1.57211 -58.1681 1.57211
283 1 -67.6008 -55.0239 1.57211
284 1 -66.0286 -56.596 0
285 1 -64.4565 -55.0239 1.57211
286 1 -62.8844 -56.596 0
287 1 -61.3123 -55.0239 1.57211
288 1 -59.7402 -56.596 0
289 1 -58.1681 -55.0239 1.57211
290 1 -56.596 -56.596 0
291 1 -55.0239 -55.0239 1.57211
292 1 -53.4518 -56.596 0
293 1 -51.8796 -55.0239 1.57211
294 1 -50.3075 -56.596 0
295 1 -48.7354 -55.0239 1.57211
296 1 -47.1633 -56.596 0
297 1 -45.5912 -55.0239 1.57211
298 1 -44.0191 -56.596 0
299 1 -42.447 -55.0239 1.57211
300 1 -40.8749 -56.596 0
301 1 -39.3028 -55.0239 1.57211
302 1 -37.7307 -56.596 0
303 1 -36.1585 -55.0239 1.57211
304 1 -34.5864 -56.596 0
305 1 -33.0143 -55.0239 1.57211
306 1 -31.4422 -56.596 0
307 1 -29.8701 -55.0239 1.57211
308 1 -28.298 -56.596 0
309 1 -26.7259 -55.0239 1.57211
310 1 -25.1538 -56.596 0
311 1 -23.5817 -55.0239 1.57211
312 1 -22.0095 -56.596 0
313 1 -20.4374 -55.0239 1.57211
314 1 -18.8653 -56.596 0
315 1 -17.2932 -55.0239 1.57211
316 1 -15.7211 -56.596 0
317 1 -14.149 -55.0239 1.57211
318 1 -12.5769 -56.596 0
319 1 -11.0048 -55.0239 1.57211
320 1 -9.43266 -56.596 0
321 1 -7.86055 -55.0239 1.57211
322 1 -6.28844 -56.596 0
323 1 -4.71633 -55.0239 1.57211
324 1 -3.14422 -56.596 0
325 1 -1.57211 -55.0239 1.57211
326 1 -70.745 -51.8796 1.57211
327 1 -69.1729 -53.4518 0
328 1 -67.6008 -51.8796 1.57211
329 1 -66.0286 -53.4518 0
330 1 -64.4565 -51.8796 1.57211
331 1 -62.8844 -53.4518 0
332 1 -61.3123 -51.8796 1.57211
333 1 -59.7402 -53.4518 0
334 1 -58.1681 -51.8796 1.57211
335 1 -56.596 -53.4518 0
336 1 -55.0239 -51.8796 1.57211
337 1 -53.4518 -53.4518 0
338 1 -51.8796 -51.8796 1.57211
339 1 -50.3075 -53.4518 0
340 1 -48.7354 -51.8796 1.57211
341 1 -47.1633 -53.4518 0
342 1 -45.5912 -51.8796 1.57211
343 1 -44.0191 -53.4518 0
344 1 -42.447 -51.8796 1.57211
345 1 -40.8749 -53.4518 0
346 1 -39.3028 -51.8796 1.57211
347 1 -37.7307 -53.4518 0
348 1 -36.1585 -51.8796 1.57211
349 1 -34.5864 -53.4518 0
350 1 -33.0143 -51.8796 1.57211
351 1 -31.4422 -53.4518 0
352 1 -29.8701 -51.8796 1.57211
353 1 -28.298 -53.4518 0
354 1 -26.7259 -51.8796 1.57211
355 1 -25.1538 -53.4518 0
356 1 -23.5817 -51.8796 1.57211
357 1 -22.0095 -53.4518 0
358 1 -20.4374 -51.8796 1.57211
359 1 -18.8653 -53.4518 0
360 1 -17.2932 -51.8796 1.57211
361 1 -15.7211 -53.4518 0
362 1 -14.149 -51.8796 1.57211
363 1 -12.5769 -53.4518 0
364 1 -11.0048 -51.8796 1.57211
365 1 -9.43266 -53.4518 0
366 1 -7.86055 -51.8796 1.57211
367 1 -6.28844 -53.4518 0
368 1 -4.71633 -51.8796 1.57211
369 1 -3.14422 -53.4518 0
370 1 -1.57211 -51.8796 1.57211
371 1 -70.745 -48.7354 1.57211
372 1 -69.1729 -50.3075 0
373 1 -67.6008 -48.7354 1.57211
374 1 -66.0286 -50.3075 0
375 1 -64.4565 -48.7354 1.57211
376 1 -62.8844 -50.3075 0
377 1 -61.3123 -48.7354 1.57211
378 1 -59.7402 -50.3075 0
379 1 -58.1681 -48.7354 1.57211
380 1 -56.596 -50.3075 0
381 1 -55.0239 -48.7354 1.57211
382 1 -53.4518 -50.3075 0
383 1 -51.8796 -48.7354 1.57211
384 1 -50.3075 -50.3075 0
385 1 -48.7354 -48.7354 1.57211
386 1 -47.1633 -50.3075 0
387 1 -45.5912 -48.7354 1.57211
388 1 -44.0191 -50.3075 0
389 1 -42.447 -48.7354 1.57211
390 1 -40.8749 -50.3075 0
391 1 -39.3028 -48.7354 1.57211
392 1 -37.7307 -50.3075 0
393 1 -36.1585 -48.7354 1.57211
394 1 -34.5864 -50.3075 0
395 1 -33.0143 -48.7354 1.57211
396 1 -31.4422 -50.3075 0
397 1 -29.8701 -48.7354 1.57211
398 1 -28.298 -50.3075 0
399 1 -26.7259 -48.7354 1.57211
400 1 -25.1538 -50.3075 0
401 1 -23.5817 -48.7354 1.57211
402 1 -22.0095 -50.3075 0
403 1 -20.4374 -48.7354 1.57211
404 1 -18.8653 -50.3075 0
405 1 -17.2932 -48.7354 1.57211
406 1 -15.7211 -50.3075 0
407 1 -14.149 -48.7354 1.57211
408 1 -12.5769 -50.3075 0
409 1 -11.0048 -48.7354 1.57211
410 1 -9.43266 -50.3075 0
411 1 -7.86055 -48.7354 1.57211
412 1 -6.28844 -50.3075 0
413 1 -4.71633 -48.7354 1.57211
414 1 -3.14422 -50.3075 0
415 1 -1.57211 -48.7354 1.57211
416 1 -73.8892 -45.5912 1.57211
417 1 -72.3171 -47.1633 0
418 1 -70.745 -45.5912 1.57211
419 1 -69.1729 -47.1633 0
420 1 -67.6008 -45.5912 1.57211
421 1 -66.0286 -47.1633 0
422 1 -64.4565 -45.5912 1.57211
423 1 -62.8844 -47.1633 0
424 1 -61.3123 -45.5912 1.57211
425 1 -59.7402 -47.1633 0
426 1 -58.1681 -45.5912 1.57211
427 1 -56.596 -47.1633 0
428 1 -55.0239 -45.5912 1.57211
429 1 -53.4518 -47.1633 0
430 1 -51.8796 -45.5912 1.57211
431 1 -50.3075 -47.1633 0
432 1 -48.7354 -45.5912 1.57211
433 1 -47.1633 -47.1633 0
434 1 -45.5912 -45.5912 1.57211
435 1 -44.0191 -47.1633 0
436 1 -42.447 -45.5912 1.57211
437 1 -40.8749 -47.1633 0
438 1 -39.3028 -45.5912 1.57211
439 1 -37.7307 -47.1633 0
440 1 -36.1585 -45.5912 1.57211
441 1 -34.5864 -47.1633 0
442 1 -33.0143 -45.5912 1.57211
443 1 -31.4422 -47.1633 0
444 1 -29.8701 -45.5912 1.57211
445 1 -28.298 -47.1633 0
446 1 -26.7259 -45.5912 1.57211
447 1 -25.1538 -47.1633 0
448 1 -23.5817 -45.5912 1.57211
449 1 -22.0095 -47.1633 0
450 1 -20.4374 -45.5912 1.57211
451 1 -18.8653 -47.1633 0
452 1 -17.2932 -45.5912 1.57211
453 1 -15.7211 -47.1633 0
454 1 -14.149 -45.5912 1.57211
455 1 -12.5769 -47.1633 0
456 1 -11.0048 -45.5912 1.57211
457 1 -9.43266 -47.1633 0
458 1 -7.86055 -45.5912 1.57211
459 1 -6.28844 -47.1633 0
460 1 -4.71633 -45.5912 1.57211
461 1 -3.14422 -47.1633 0
462 1 -1.57211 -45.5912 1.57211
463 1 -77.0334 -42.447 1.57211
464 1 -75.4613 -44.0191 0
465 1 -73.8892 -42.447 1.57211
466 1 -72.3171 -44.0191 0
467 1 -70.745 -42.447 1.57211
468 1 -69.1729 -44.0191 0
469 1 -67.6008 -42.447 1.57211
470 1 -66.0286 -44.0191 0
471 1 -64.4565 -42.447 1.57211
472 1 -62.8844 -44.0191 0
473 1 -61.3123 -42.447 1.57211
474 1 -59.7402 -44.0191 0
475 1 -58.1681 -42.447 1.57211
476 1 -56.596 -44.0191 0
477 1 -55.0239 -42.447 1.57211
478 1 -53.4518 -44.0191 0
479 1 -51.8796 -42.447 1.57211
480 1 -50.3075 -44.0191 0
481 1 -48.7354 -42.447 1.57211
482 1 -47.1633 -44.0191 0
483 1 -45.5912 -42.447 1.57211
484 1 -44.0191 -44.0191 0
485 1 -42.447 -42.447 1.57211
486 1 -40.8749 -44.0191 0
487 1 -39.3028 -42.447 1.57211
488 1 -37.7307 -44.0191 0
489 1 -36.1585 -42.447 1.57211
490 1 -34.5864 -44.0191 0
491 1 -33.0143 -42.447 1.57211
492 1 -31.4422 -44.0191 0
493 1 -29.8701 -42.447 1.57211
494 1 -28.298 -44.0191 0
495 1 -26.7259 -42.447 1.57211
496 1 -25.1538 -44.0191 0
497 1 -23.5817 -42.447 1.57211
498 1 -22.0095 -44.0191 0
499 1 -20.4374 -42.447 1.57211
500 1 -18.8653 -44.0191 0
501 1 -17.2932 -42.447 1.57211
502 1 -15.7211 -44.0191 0
503 1 -14.149 -42.447 1.57211
504 1 -12.5769 -44.0191 0
505 1 -11.0048 -42.447 1.57211
506 1 -9.43266 -44.0191 0
507 1 -7.86055 -42.447 1.57211
508 1 -6.28844 -44.0191 0
509 1 -4.71633 -42.447 1.57211
510 1 -3.14422 -44.0191 0
511 1 -1.57211 -42.447 1.57211
512 1 -77.0334 -39.3028 1.57211
513 1 -75.4613 -40.8749 0
514 1 -73.8892 -39.3028 1.57211
515 1 -72.3171 -40.8749 0
516 1 -70.745 -39.3028 1.57211
517 1 -69.1729 -40.8749 0
518 1 -67.6008 -39.3028 1.57211
519 1 -66.0286 -40.8749 0
520 1 -64.4565 -39.3028 1.57211
521 1 -62.8844 -40.8749 0
522 1 -61.3123 -39.3028 1.57211
523 1 -59.7402 -40.8749 0
524 1 -58.1681 -39.3028 1.57211
525 1 -56.596 -40.8749 0
526 1 -55.0239 -39.3028 1.57211
527 1 -53.4518 -40.8749 0
528 1 -51.8796 -39.3028 1.57211
529 1 -50.3075 -40.8749 0
530 1 -48.7354 -39.3028 1.57211
531 1 -47.1633 -40.8749 0
532 1 -45.5912 -39.3028 1.57211
533 1 -44.0191 -40.8749 0
534 1 -42.447 -39.3028 1.57211
535 1 -40.8749 -40.8749 0
536 1 -39.3028 -39.3028 1.57211
537 1 -37.7307 -40.8749 0
538 1 -36.1585 -39.3028 1.57211
539 1 -34.5864 -40.8749 0
540 1 -33.0143 -39.3028 1.57211
541 1 -31.4422 -40.8749 0
542 1 -29.8701 -39.3028 1.57211
543 1 -28.298 -40.8749 0
544 1 -26.7259 -39.3028 1.57211
545 1 -25.1538 -40.8749 0
546 1 -23.5817 -39.3028 1.57211
547 1 -22.0095 -40.8749 0
548 1 -20.4374 -39.3028 1.57211
549 1 -18.8653 -40.8749 0
550 1 -17.2932 -39.3028 1.57211
551 1 -15.7211 -40.8749 0
552 1 -14.149 -39.3028 1.57211
553 1 -12.5769 -40.8749 0
554 1 -11.0048 -39.3028 1.57211
555 1 -9.43266 -40.8749 0
556 1 -7.86055 -39.3028 1.57211
557 1 -6.28844 -40.8749 0
558 1 -4.71633 -39.3028 1.57211
559 1 -3.14422 -40.8749 0
560 1 -1.57211 -39.3028 1.57211
561 1 -80.1776 -36.1585 1.57211
562 1 -78.6055 -37.7307 0
563 1 -77.0334 -36.1585 1.57211
564 1 -75.4613 -37.7307 0
565 1 -73.8892 -36.1585 1.57211
566 1 -72.3171 -37.7307 0
567 1 -70.745 -36.1585 1.57211
568 1 -69.1729 -37.7307 0
569 1 -67.6008 -36.1585 1.57211
570 1 -66.0286 -37.7307 0
571 1 -64.4565 -36.1585 1.57211
572 1 -62.8844 -37.7307 0
573 1 -61.3123 -36.1585 1.57211
574 1 -59.7402 -37.7307 0
575 1 -58.1681 -36.1585 1.57211
576 1 -56.596 -37.7307 0
577 1 -55.0239 -36.1585 1.57211
578 1 -53.4518 -37.7307 0
579 1 -51.8796 -36.1585 1.57211
580 1 -50.3075 -37.7307 0
581 1 -48.7354 -36.1585 1.57211
582 1 -47.1633 -37.7307 0
583 1 -45.5912 -36.1585 1.57211
584 1 -44.0191 -37.7307 0
585 1 -42.447 -36.1585 1.57211
586 1 -40.8749 -37.7307 0
587 1 -39.3028 -36.1585 1.57211
588 1 -37.7307 -37.7307 0
589 1 -36.1585 -36.1585 1.57211
590 1 -34.5864 -37.7307 0
591 1 -33.0143 -36.1585 1.57211
592 1 -31.4422 -37.7307 0
593 1 -29.8701 -36.1585 1.57211
594 1 -28.298 -37.7307 0
595 1 -26.7259 -36.1585 1.57211
596 1 -25.1538 -37.7307 0
597 1 -23.5817 -36.1585 1.57211
598 1 -22.0095 -37.7307 0
599 1 -20.4374 -36.1585 1.57211
600 1 -18.8653 -37.7307 0
601 1 -17.2932 -36.1585 1.57211
602 1 -15.7211 -37.7307 0
603 1 -14.149 -36.1585 1.57211
604 1 -12.5769 -37.7307 0
605 1 -11.0048 -36.1585 1.57211
606 1 -9.43266 -37.7307 0
607 1 -7.86055 -36.1585 1.57211
608 1 -6.28844 -37.7307 0
609 1 -4.71633 -36.1585 1.57211
610 1 -3.14422 -37.7307 0
611 1 -1.57211 -36.1585 1.57211
612 1 -80.1776 -33.0143 1.57211
613 1 -78.6055 -34.5864 0
614 1 -77.0334 -33.0143 1.57211
615 1 -75.4613 -34.5864 0
616 1 -73.8892 -33.0143 1.57211
617 1 -72.3171 -34.5864 0
618 1 -70.745 -33.0143 1.57211
619 1 -69.1729 -34.5864 0
620 1 -67.6008 -33.0143 1.57211
621 1 -66.0286 -34.5864 0
622 1 -64.4565 -33.0143 1.57211
623 1 -62.8844 -34.5864 0
624 1 -61.3123 -33.0143 1.57211
625 1 -59.7402 -34.5864 0
626 1 -58.1681 -33.0143 1.57211
627 1 -56.596 -34.5864 0
628 1 -55.0239 -33.0143 1.57211
629 1 -53.4518 -34.5864 0
630 1 -51.8796 -33.0143 1.57211
631 1 -50.3075 -34.5864 0
632 1 -48.7354 -33.0143 1.57211
633 1 -47.1633 -34.5864 0
634 1 -45.5912 -33.0143 1.57211
635 1 -44.0191 -34.5864 0
636 1 -42.447 -33.0143 1.57211
637 1 -40.8749 -34.5864 0
638 1 -39.3028 -33.0143 1.57211
639 1 -37.7307 -34.5864 0
640 1 -36.1585 -33.0143 1.57211
641 1 -34.5864 -34.5864 0
642 1 -33.0143 -33.0143 1.57211
643 1 -31.4422 -34.5864 0
644 1 -29.8701 -33.0143 1.57211
645 1 -28.298 -34.5864 0
646 1 -26.7259 -33.0143 1.57211
647 1 -25.1538 -34.5864 0
648 1 -23.5817 -33.0143 1.57211
649 1 -22.0095 -34.5864 0
650 1 -20.4374 -33.0143 1.57211
651 1 -18.8653 -34.5864 0
652 1 -17.2932 -33.0143 1.57211
653 1 -15.7211 -34.5864 0
654 1 -14.149 -33.0143 1.57211
655 1 -12.5769 -34.5864 0
656 1 -11.0048 -33.0143 1.57211
657 1 -9.43266 -34.5864 0
658 1 -7.86055 -33.0143 1.57211
659 1 -6.28844 -34.5864 0
660 1 -4.71633 -33.0143 1.57211
661 1 -3.14422 -34.5864 0
662 1 -1.57211 -33.0143 1.57211
663 1 -81.7497 -31.4422 0
664 1 -80.1776 -29.8701 1.57211
665 1 -78.6055 -31.4422 0
666 1 -77.0334 -29.8701 1.57211
667 1 -75.4613 -31.4422 0
668 1 -73.8892 -29.8701 1.57211
669 1 -72.3171 -31.4422 0
670 1 -70.745 -29.8701 1.57211
671 1 -69.1729 -31.4422 0
672 1 -67.6008 -29.8701 1.57211
673 1 -66.0286 -31.4422 0
674 1 -64.4565 -29.8701 1.57211
675 1 -62.8844 -31.4422 0
676 1 -61.3123 -29.8701 1.57211
677 1 -59.7402 -31.4422 0
678 1 -58.1681 -29.8701 1.57211
679 1 -56.596 -31.4422 0
680 1 -55.0239 -29.8701 1.57211
681 1 -53.4518 -31.4422 0
682 1 -51.8796 -29.8701 1.57211
683 1 -50.3075 -31.4422 0
684 1 -48.7354 -29.8701 1.57211
685 1 -47.1633 -31.4422 0
686 1 -45.5912 -29.8701 1.57211
687 1 -44.0191 -31.4422 0
688 1 -42.447 -29.8701 1.57211
689 1 -40.8749 -31.4422 0
690 1 -39.3028 -29.8701 1.57211
691 1 -37.7307 -31.4422 0
692 1 -36.1585 -29.8701 1.57211
693 1 -34.5864 -31.4422 0
694 1 -33.0143 -29.8701 1.57211
695 1 -31.4422 -31.4422 0
696 1 -29.8701 -29.8701 1.57211
697 1 -28.298 -31.4422 0
698 1 -26.7259 -29.8701 1.57211
699 1 -25.1538 -31.4422 0
700 1 -23.5817 -29.8701 1.57211
701 1 -22.0095 -31.4422 0
702 1 -20.4374 -29.8701 1.57211
703 1 -18.8653 -31.4422 0
704 1 -17.2932 -29.8701 1.57211
705 1 -15.7211 -31.4422 0
706 1 -14.149 -29.8701 1.57211
707 1 -12.5769 -31.4422 0
708 1 -11.0048 -29.8701 1.57211
709 1 -9.43266 -31.4422 0
710 1 -7.86055 -29.8701 1.57211
711 1 -6.28844 -31.4422 0
712 1 -4.71633 -29.8701 1.57211
713 1 -3.14422 -31.4422 0
714 1 -1.57211 -29.8701 1.57211
715 1 -83.3219 -26.7259 1.57211
716 1 -81.7497 -28.298 0
717 1 -80.1776 -26.7259 1.57211
718 1 -78.6055 -28.298 0
719 1 -77.0334 -26.7259 1.57211
720 1 -75.4613 -28.298 0
721 1 -73.8892 -26.7259 1.57211
722 1 -72.3171 -28.298 0
723 1 -70.745 -26.7259 1.57211
724 1 -69.1729 -28.298 0
725 1 -67.6008 -26.7259 1.57211
726 1 -66.0286 -28.298 0
727 1 -64.4565 -26.7259 1.57211
728 1 -62.8844 -28.298 0
729 1 -61.3123 -26.7259 1.57211
730 1 -59.7402 -28.298 0
731 1 -58.1681 -26.7259 1.57211
732 1 -56.596 -28.298 0
733 1 -55.0239 -26.7259 1.57211
734 1 -53.4518 -28.298 0
735 1 -51.8796 -26.7259 1.57211
736 1 -50.3075 -28.298 0
737 1 -48.7354 -26.7259 1.57211
738 1 -47.1633 -28.298 0
739 1 -45.5912 -26.7259 1.57211
740 1 -44.0191 -28.298 0
741 1 -42.447 -26.7259 1.57211
742 1 -40.8749 -28.298 0
743 1 -39.3028 -26.7259 1.57211
744 1 -37.7307 -28.298 0
745 1 -36.1585 -26.7259 1.57211
746 1 -34.5864 -28.298 0
747 1 -33.0143 -26.7259 1.57211
748 1 -31.4422 -28.298 0
749 1 -29.8701 -26.7259 1.57211
750 1 -28.298 -28.298 0
751 1 -26.7259 -26.7259 1.57211
752 1 -25.1538 -28.298 0
753 1 -23.5817 -26.7259 1.57211
754 1 -22.0095 -28.298 0
755 1 -20.4374 -26.7259 1.57211
756 1 -18.8653 -28.298 0
757 1 -17.2932 -26.7259 1.57211
758 1 -15.7211 -28.298 0
759 1 -14.149 -26.7259 1.57211
760 1 -12.5769 -28.298 0
761 1 -11.0048 -26.7259 1.57211
762 1 -9.43266 -28.298 0
763 1 -7.86055 -26.7259 1.57211
764 1 -6.28844 -28.298 0
765 1 -4.71633 -26.7259 1.57211
766 1 -3.14422 -28.298 0
767 1 -1.57211 -26.7259 1.57211
768 1 -83.3219 -23.5817 1.57211
769 1 -81.7497 -25.1538 0
770 1 -80.1776 -23.5817 1.57211
771 1 -78.6055 -25.1538 0
772 1 -77.0334 -23.5817 1.57211
773 1 -75.4613 -25.1538 0
774 1 -73.8892 -23.5817 1.57211
775 1 -72.3171 -25.1538 0
776 1 -70.745 -23.5817 1.57211
777 1 -69.1729 -25.1538 0
778 1 -67.6008 -23.5817 1.57211
779 1 -66.0286 -25.1538 0
780 1 -64.4565 -23.5817 1.57211
781 1 -62.8844 -25.1538 0
782 1 -61.3123 -23.5817 1.57211
783 1 -59.7402 -25.1538 0
784 1 -58.1681 -23.5817 1.57211
785 1 -56.596 -25.1538 0
786 1 -55.0239 -23.5817 1.57211
787 1 -53.4518 -25.1538 0
788 1 -51.8796 -23.5817 1.57211
789 1 -50.3075 -25.1538 0
790 1 -48.7354 -23.5817 1.57211
791 1 -47.1633 -25.1538 0
792 1 -45.5912 -23.5817 1.57211
793 1 -44.0191 -25.1538 0
794 1 -42.447 -23.5817 1.57211
795 1 -40.8749 -25.1538 0
796 1 -39.3028 -23.5817 1.57211
797 1 -37.7307 -25.1538 0
798 1 -36.1585 -23.5817 1.57211
799 1 -34.5864 -25.1538 0
800 1 -33.0143 -23.5817 1.57211
801 1 -31.4422 -25.1538 0
802 1 -29.8701 -23.5817 1.57211
803 1 -28.298 -25.1538 0
804 1 -26.7259 -23.5817 1.57211
805 1 -25.1538 -25.1538 0
806 1 -23.5817 -23.5817 1.57211
807 1 -22.0095 -25.1538 0
808 1 -20.4374 -23.5817 1.57211
809 1 -18.8653 -25.1538 0
810 1 -17.2932 -23.5817 1.57211
811 1 -15.7211 -25.1538 0
812 1 -14.149 -23.5817 1.57211
813 1 -12.5769 -25.1538 0
814 1 -11.0048 -23.5817 1.57211
815 1 -9.43266 -25.1538 0
816 1 -7.86055 -23.5817 1.57211
817 1 -6.28844 -25.1538 0
818 1 -4.71633 -23.5817 1.57211
819 1 -3.14422 -25.1538 0
820 1 -1.57211 -23.5817 1.57211
821 1 -84.894 -22.0095 0
822 1 -83.3219 -20.4374 1.57211
823 1 -81.7497 -22.0095 0
824 1 -80.1776 -20.4374 1.57211
825 1 -78.6055 -22.0095 0
826 1 -77.0334 -20.4374 1.57211
827 1 -75.4613 -22.0095 0
828 1 -73.8892 -20.4374 1.57211
829 1 -72.3171 -22.0095 0
830 1 -70.745 -20.4374 1.57211
831 1 -69.1729 -22.0095 0
832 1 -67.6008 -20.4374 1.57211
833 1 -66.0286 -22.0095 0
834 1 -64.4565 -20.4374 1.57211
835 1 -62.8844 -22.0095 0
836 1 -61.3123 -20.4374 1.57211
837 1 -59.7402 -22.0095 0
838 1 -58.1681 -20.4374 1.57211
839 1 -56.596 -22.0095 0
840 1 -55.0239 -20.4374 1.57211
841 1 -53.4518 -22.0095 0
842 1 -51.8796 -20.4374 1.57211
843 1 -50.3075 -22.0095 0
844 1 -48.7354 -20.4374 1.57211
845 1 -47.1633 -22.0095 0
846 1 -45.5912 -20.4374 1.57211
847 1 -44.0191 -22.0095 0
848 1 -42.447 -20.4374 1.57211
849 1 -40.8749 -22.0095 0
850 1 -39.3028 -20.4374 1.57211
851 1 -37.7307 -22.0095 0
852 1 -36.1585 -20.4374 1.57211
853 1 -34.5864 -22.0095 0
854 1 -33.0143 -20.4374 1.57211
855 1 -31.4422 -22.0095 0
856 1 -29.8701 -20.4374 1.57211
857 1 -28.298 -22.0095 0
858 1 -26.7259 -20.4374 1.57211
859 1 -25.1538 -22.0095 0
860 1 -23.5817 -20.4374 1.57211
861 1 -22.0095 -22.0095 0
862 1 -20.4374 -20.4374 1.57211
863 1 -18.8653 -22.0095 0
864 1 -17.2932 -20.4374 1.57211
865 1 -15.7211 -22.0095 0
866 1 -14.149 -20.4374 1.57211
867 1 -12.5769 -22.0095 0
868 1 -11.0048 -20.4374 1.57211
869 1 -9.43266 -22.0095 0
870 1 -7.86055 -20.4374 1.57211
871 1 -6.28844 -22.0095 0
872 1 -4.71633 -20.4374 1.57211
873 1 -3.14422 -22.0095 0
874 1 -1.57211 -20.4374 1.57211
875 1 -84.894 -18.8653 0
876 1 -83.3219 -17.2932 1.57211
877 1 -81.7497 -18.8653 0
878 1 -80.1776 -17.2932 1.57211
879 1 -78.6055 -18.8653 0
880 1 -77.0334 -17.2932 1.57211
881 1 -75.4613 -18.8653 0
882 1 -73.8892 -17.2932 1.57211
883 1 -72.3171 -18.8653 0
884 1 -70.745 -17.2932 1.57211
885 1 -69.1729 -18.8653 0
886 1 -67.6008 -17.2932 1.57211
887 1 -66.0286 -18.8653 0
888 1 -64.4565 -17.2932 1.57211
889 1 -62.8844 -18.8653 0
890 1 -61.3123 -17.2932 1.57211
891 1 -59.7402 -18.8653 0
892 1 -58.1681 -17.2932 1.57211
893 1 -56.596 -18.8653 0
894 1 -55.0239 -17.2932 1.57211
895 1 -53.4518 -18.8653 0
896 1 -51.8796 -17.2932 1.57211
897 1 -50.3075 -18.8653 0
898 1 -48.7354 -17.2932 1.57211
899 1 -47.1633 -18.8653 0
900 1 -45.5912 -17.2932 1.57211
901 1 -44.0191 -18.8653 0
902 1 -42.447 -17.2932 1.57211
903 1 -40.8749 -18.8653 0
904 1 -39.3028 -17.2932 1.57211
905 1 -37.7307 -18.8653 0
906 1 -36.1585 -17.2932 1.57211
907 1 -34.5864 -18.8653 0
908 1 -33.0143 -17.2932 1.57211
909 1 -31.4422 -18.8653 0
910 1 -29.8701 -17.2932 1.57211
911 1 -28.298 -18.8653 0
912 1 -26.7259 -17.2932 1.57211
913 1 -25.1538 -18.8653 0
914 1 -23.5817 -17.2932 1.57211
915 1 -22.0095 -18.8653 0
916 1 -20.4374 -17.2932 1.57211
917 1 -18.8653 -18.8653 0
918 1 -17.2932 -17.2932 1.57211
919 1 -15.7211 -18.8653 0
920 1 -14.149 -17.2932 1.57211
921 1 -12.5769 -18.8653 0
922 1 -11.0048 -17.2932 1.57211
923 1 -9.43266 -18.8653 0
924 1 -7.86055 -17.2932 1.57211
925 1 -6.28844 -18.8653 0
926 1 -4.71633 -17.2932 1.57211
927 1 -3.14422 -18.8653 0
928 1 -1.57211 -17.2932 1.57211
929 1 -86.4661 -14.149 1.57211
930 1 -84.894 -15.7211 0
931 1 -83.3219 -14.149 1.57211
932 1 -81.7497 -15.7211 0
933 1 -80.1776 -14.149 1.57211
934 1 -78.6055 -15.7211 0
935 1 -77.0334 -14.149 1.57211
936 1 -75.4613 -15.7211 0
937 1 -73.8892 -14.149 1.57211
938 1 -72.3171 -15.7211 0
939 1 -70.745 -14.149 1.57211
940 1 -69.1729 -15.7211 0
941 1 -67.6008 -14.149 1.57211
942 1 -66.0286 -15.7211 0
943 1 -64.4565 -14.149 1.57211
944 1 -62.8844 -15.7211 0
945 1 -61.3123 -14.149 1.57211
946 1 -59.7402 -15.7211 0
947 1 -58.1681 -14.149 1.57211
948 1 -56.596 -15.7211 0
949 1 -55.0239 -14.149 1.57211
950 1 -53.4518 -15.7211 0
951 1 -51.8796 -14.149 1.57211
952 1 -50.3075 -15.7211 0
953 1 -48.7354 -14.149 1.57211
954 1 -47.1633 -15.7211 0
955 1 -45.5912 -14.149 1.57211
956 1 -44.0191 -15.7211 0
957 1 -42.447 -14.149 1.57211
958 1 -40.8749 -15.7211 0
959 1 -39.3028 -14.149 1.57211
960 1 -37.7307 -15.7211 0
961 1 -36.1585 -14.149 1.57211
962 1 -34.5864 -15.7211 0
963 1 -33.0143 -14.149 1.57211
964 1 -31.4422 -15.7211 0
965 1 -29.8701 -14.149 1.57211
966 1 -28.298 -15.7211 0
967 1 -26.7259 -14.149 1.57211
968 1 -25.1538 -15.7211 0
969 1 -23.5817 -14.149 1.57211
970 1 -22.0095 -15.7211 0
971 1 -20.4374 -14.149 1.57211
972 1 -18.8653 -15.7211 0
973 1 -17.2932 -14.149 1.57211
974 1 -15.7211 -15.7211 0
975 1 -14.149 -14.149 1.57211
976 1 -12.5769 -15.7211 0
977 1 -11.0048 -14.149 1.57211
978 1 -9.43266 -15.7211 0
979 1 -7.86055 -14.149 1.57211
980 1 -6.28844 -15.7211 0
981 1 -4.71633 -14.149 1.57211
982 1 -3.14422 -15.7211 0
983 1 -1.57211 -14.149 1.57211
984 1 -86.4661 -11.0048 1.57211
985 1 -84.894 -12.5769 0
986 1 -83.3219 -11.0048 1.57211
987 1 -81.7497 -12.5769 0
988 1 -80.1776 -11.0048 1.57211
989 1 -78.6055 -12.5769 0
990 1 -77.0334 -11.0048 1.57211
991 1 -75.4613 -12.5769 0
992 1 -73.8892 -11.0048 1.57211
993 1 -72.3171 -12.5769 0
994 1 -70.745 -11.0048 1.57211
995 1 -69.1729 -12.5769 0
996 1 -67.6008 -11.0048 1.57211
997 1 -66.0286 -12.5769 0
998 1 -64.4565 -11.0048 1.57211
999 1 -62.8844 -12.5769 0
1000 1 -61.3123 -11.0048 1.57211
1001 1 -59.7402 -12.5769 0
1002 1 -58.1681 -11.0048 1.57211
1003 1 -56.596 -12.5769 0
1004 1 -55.0239 -11.0048 1.57211
1005 1 -53.4518 -12.5769 0
1006 1 -51.8796 -11.0048 1.57211
1007 1 -50.3075 -12.5769 0
1008 1 -48.7354 -11.0048 1.57211
1009 1 -47.1633 -12.5769 0
1010 1 -45.5912 -11.0048 1.57211
1011 1 -44.0191 -12.5769 0
1012 1 -42.447 -11.0048 1.57211
1013 1 -40.8749 -12.5769 0
1014 1 -39.3028 -11.0048 1.57211
1015 1 -37.7307 -12.5769 0
1016 1 -36.1585 -11.0048 1.57211
1017 1 -34.5864 -12.5769 0
1018 1 -33.0143 -11.0048 1.57211
1019 1 -31.4422 -12.5769 0
1020 1 -29.8701 -11.0048 1.57211
1021 1 -28.298 -12.5769 0
1022 1 -26.7259 -11.0048 1.57211
1023 1 -25.1538 -12.5769 0
1024 1 -23.5817 -11.0048 1.57211
1025 1 -22.0095 -12.5769 0
1026 1 -20.4374 -11.0048 1.57211
1027 1 -18.8653 -12.5769 0
1028 1 -17.2932 -11.0048 1.57211
1029 1 -15.7211 -12.5769 0
1030 1 -14.149 -11.0048 1.57211
1031 1 -12.5769 -12.5769 0
1032 1 -11.0048 -11.0048 1.57211
1033 1 -9.43266 -12.5769 0