ITEM: TIMESTEP
0
ITEM: NUMBER OF ATOMS
68950
ITEM: BOX BOUNDS pp pp pp
-3.5215275199999996e+02 3.5215275199999996e+02
-3.5215275199999996e+02 3.5215275199999996e+02
0.0000000000000000e+00 4.4019093999999996e+01
ITEM: ATOMS id type x y z
1 1 -14.14900 -86.46610 0.70493 
2 1 -11.00480 -86.46610 0.72276 
3 1 -7.86055 -86.46610 0.74074 
4 1 -4.71633 -86.46610 0.75884 
5 1 -1.57211 -86.46610 0.77701 
6 1 -26.72590 -83.32190 0.63077 
7 1 -23.58170 -83.32190 0.64808 
8 1 -22.00950 -84.89400 -0.91296 
9 1 -20.43740 -83.32190 0.66573 
10 1 -18.86530 -84.89400 -0.89544 
11 1 -17.29320 -83.32190 0.68369 
12 1 -15.72110 -84.89400 -0.87764 
13 1 -14.14900 -83.32190 0.70193 
14 1 -12.57690 -84.89400 -0.85961 
15 1 -11.00480 -83.32190 0.72039 
16 1 -9.43266 -84.89400 -0.84138 
17 1 -7.86055 -83.32190 0.73904 
18 1 -6.28844 -84.89400 -0.82300 
19 1 -4.71633 -83.32190 0.75782 
20 1 -3.14422 -84.89400 -0.80452 
21 1 -1.57211 -83.32190 0.77667 
22 1 -36.15850 -80.17760 0.57407 
23 1 -33.01430 -80.17760 0.59062 
24 1 -31.44220 -81.74970 -0.96976 
25 1 -29.87010 -80.17760 0.60763 
26 1 -28.29800 -81.74970 -0.95278 
27 1 -26.72590 -80.17760 0.62508 
28 1 -25.15380 -81.74970 -0.93539 
29 1 -23.58170 -80.17760 0.64295 
30 1 -22.00950 -81.74970 -0.91762 
31 1 -20.43740 -80.17760 0.66120 
32 1 -18.86530 -81.74970 -0.89950 
33 1 -17.29320 -80.17760 0.67980 
34 1 -15.72110 -81.74970 -0.88108 
35 1 -14.14900 -80.17760 0.69870 
36 1 -12.57690 -81.74970 -0.86239 
37 1 -11.00480 -80.17760 0.71785 
38 1 -9.43266 -81.74970 -0.84349 
39 1 -7.86055 -80.17760 0.73721 
40 1 -6.28844 -81.74970 -0.82442 
41 1 -4.71633 -80.17760 0.75671 
42 1 -3.14422 -81.74970 -0.80523 
43 1 -1.57211 -80.17760 0.77630 
44 1 -42.44700 -77.03340 0.53405 
45 1 -39.30280 -77.03340 0.54999 
46 1 -37.73070 -78.60550 -1.00998 
47 1 -36.15850 -77.03340 0.56647 
48 1 -34.58640 -78.60550 -0.99345 
49 1 -33.01430 -77.03340 0.58347 
50 1 -31.44220 -78.60550 -0.97643 
51 1 -29.87010 -77.03340 0.60098 
52 1 -28.29800 -78.60550 -0.95894 
53 1 -26.72590 -77.03340 0.61898 
54 1 -25.15380 -78.60550 -0.94100 
55 1 -23.58170 -77.03340 0.63744 
56 1 -22.00950 -78.60550 -0.92263 
57 1 -20.43740 -77.03340 0.65633 
58 1 -18.86530 -78.60550 -0.90388 
59 1 -17.29320 -77.03340 0.67560 
60 1 -15.72110 -78.60550 -0.88479 
61 1 -14.14900 -77.03340 0.69521 
62 1 -12.57690 -78.60550 -0.86540 
63 1 -11.00480 -77.03340 0.71510 
64 1 -9.43266 -78.60550 -0.84576 
65 1 -7.86055 -77.03340 0.73523 
66 1 -6.28844 -78.60550 -0.82595 
67 1 -4.71633 -77.03340 0.75552 
68 1 -3.14422 -78.60550 -0.80600 
69 1 -1.57211 -77.03340 0.77591 
70 1 -45.59120 -73.88920 0.50942 
71 1 -44.01910 -75.46130 -1.05029 
72 1 -42.44700 -73.88920 0.52514 
73 1 -40.87490 -75.46130 -1.03445 
74 1 -39.30280 -73.88920 0.54145 
75 1 -37.73070 -75.46130 -1.01805 
76 1 -36.15850 -73.88920 0.55834 
77 1 -34.58640 -75.46130 -1.00109 
78 1 -33.01430 -73.88920 0.57581 
79 1 -31.44220 -75.46130 -0.98358 
80 1 -29.87010 -73.88920 0.59384 
81 1 -28.29800 -75.46130 -0.96555 
82 1 -26.72590 -73.88920 0.61242 
83 1 -25.15380 -75.46130 -0.94703 
84 1 -23.58170 -73.88920 0.63150 
85 1 -22.00950 -75.46130 -0.92803 
86 1 -20.43740 -73.88920 0.65106 
87 1 -18.86530 -75.46130 -0.90860 
88 1 -17.29320 -73.88920 0.67106 
89 1 -15.72110 -75.46130 -0.88879 
90 1 -14.14900 -73.88920 0.69143 
91 1 -12.57690 -75.46130 -0.86865 
92 1 -11.00480 -73.88920 0.71212 
93 1 -9.43266 -75.46130 -0.84823 
94 1 -7.86055 -73.88920 0.73308 
95 1 -6.28844 -75.46130 -0.82760 
96 1 -4.71633 -73.88920 0.75422 
97 1 -3.14422 -75.46130 -0.80683 
98 1 -1.57211 -73.88920 0.77548 
99 1 -51.87960 -70.74500 0.46943 
100 1 -48.73540 -70.74500 0.48420 
101 1 -47.16330 -72.31710 -1.07523 
102 1 -45.59120 -70.74500 0.49960 
103 1 -44.01910 -72.31710 -1.05966 
104 1 -42.44700 -70.74500 0.51564 
105 1 -40.87490 -72.31710 -1.04347 
106 1 -39.30280 -70.74500 0.53232 
107 1 -37.73070 -72.31710 -1.02667 
108 1 -36.15850 -70.74500 0.54964 
109 1 -34.58640 -72.31710 -1.00927 
110 1 -33.01430 -70.74500 0.56759 
111 1 -31.44220 -72.31710 -0.99126 
112 1 -29.87010 -70.74500 0.58616 
113 1 -28.29800 -72.31710 -0.97267 
114 1 -26.72590 -70.74500 0.60534 
115 1 -25.15380 -72.31710 -0.95352 
116 1 -23.58170 -70.74500 0.62509 
117 1 -22.00950 -72.31710 -0.93385 
118 1 -20.43740 -70.74500 0.64537 
119 1 -18.86530 -72.31710 -0.91371 
120 1 -17.29320 -70.74500 0.66613 
121 1 -15.72110 -72.31710 -0.89312 
122 1 -14.14900 -70.74500 0.68733 
123 1 -12.57690 -72.31710 -0.87217 
124 1 -11.00480 -70.74500 0.70889 
125 1 -9.43266 -72.31710 -0.85090 
126 1 -7.86055 -70.74500 0.73074 
127 1 -6.28844 -72.31710 -0.82940 
128 1 -4.71633 -70.74500 0.75281 
129 1 -3.14422 -72.31710 -0.80773 
130 1 -1.57211 -70.74500 0.77501 
131 1 -55.02390 -67.60080 0.44418 
132 1 -53.45180 -69.17290 -1.11526 
133 1 -51.87960 -67.60080 0.45851 
134 1 -50.30750 -69.17290 -1.10070 
135 1 -48.73540 -67.60080 0.47349 
136 1 -47.16330 -69.17290 -1.08550 
137 1 -45.59120 -67.60080 0.48915 
138 1 -44.01910 -69.17290 -1.06964 
139 1 -42.44700 -67.60080 0.50550 
140 1 -40.87490 -69.17290 -1.05311 
141 1 -39.30280 -67.60080 0.52254 
142 1 -37.73070 -69.17290 -1.03591 
143 1 -36.15850 -67.60080 0.54029 
144 1 -34.58640 -69.17290 -1.01804 
145 1 -33.01430 -67.60080 0.55874 
146 1 -31.44220 -69.17290 -0.99951 
147 1 -29.87010 -67.60080 0.57788 
148 1 -28.29800 -69.17290 -0.98034 
149 1 -26.72590 -67.60080 0.59769 
150 1 -25.15380 -69.17290 -0.96055 
151 1 -23.58170 -67.60080 0.61814 
152 1 -22.00950 -69.17290 -0.94017 
153 1 -20.43740 -67.60080 0.63919 
154 1 -18.86530 -69.17290 -0.91924 
155 1 -17.29320 -67.60080 0.66078 
156 1 -15.72110 -69.17290 -0.89783 
157 1 -14.14900 -67.60080 0.68286 
158 1 -12.57690 -69.17290 -0.87600 
159 1 -11.00480 -67.60080 0.70536 
160 1 -9.43266 -69.17290 -0.85381 
161 1 -7.86055 -67.60080 0.72819 
162 1 -6.28844 -69.17290 -0.83136 
163 1 -4.71633 -67.60080 0.75127 
164 1 -3.14422 -69.17290 -0.80872 
165 1 -1.57211 -67.60080 0.77449 
166 1 -58.16810 -64.45650 0.41867 
167 1 -56.59600 -66.02860 -1.14066 
168 1 -55.02390 -64.45650 0.43246 
169 1 -53.45180 -66.02860 -1.12659 
170 1 -51.87960 -64.45650 0.44693 
171 1 -50.30750 -66.02860 -1.11185 
172 1 -48.73540 -64.45650 0.46210 
173 1 -47.16330 -66.02860 -1.09643 
174 1 -45.59120 -64.45650 0.47800 
175 1 -44.01910 -66.02860 -1.08029 
176 1 -42.44700 -64.45650 0.49465 
177 1 -40.87490 -66.02860 -1.06342 
178 1 -39.30280 -64.45650 0.51207 
179 1 -37.73070 -66.02860 -1.04582 
180 1 -36.15850 -64.45650 0.53025 
181 1 -34.58640 -66.02860 -1.02749 
182 1 -33.01430 -64.45650 0.54921 
183 1 -31.44220 -66.02860 -1.00842 
184 1 -29.87010 -64.45650 0.56893 
185 1 -28.29800 -66.02860 -0.98863 
186 1 -26.72590 -64.45650 0.58940 
187 1 -25.15380 -66.02860 -0.96816 
188 1 -23.58170 -64.45650 0.61059 
189 1 -22.00950 -66.02860 -0.94702 
190 1 -20.43740 -64.45650 0.63245 
191 1 -18.86530 -66.02860 -0.92527 
192 1 -17.29320 -64.45650 0.65494 
193 1 -15.72110 -66.02860 -0.90297 
194 1 -14.14900 -64.45650 0.67798 
195 1 -12.57690 -66.02860 -0.88019 
196 1 -11.00480 -64.45650 0.70150 
197 1 -9.43266 -66.02860 -0.85700 
198 1 -7.86055 -64.45650 0.72540 
199 1 -6.28844 -66.02860 -0.83350 
200 1 -4.71633 -64.45650 0.74958 
201 1 -3.14422 -66.02860 -0.80979 
202 1 -1.57211 -64.45650 0.77393 
203 1 -61.31230 -61.31230 0.39303 
204 1 -59.74020 -62.88440 -1.16625 
205 1 -58.16810 -61.31230 0.40619 
206 1 -56.59600 -62.88440 -1.15277 
207 1 -55.02390 -61.31230 0.42005 
208 1 -53.45180 -62.88440 -1.13859 
209 1 -51.87960 -61.31230 0.43464 
210 1 -50.30750 -62.88440 -1.12370 
211 1 -48.73540 -61.31230 0.44998 
212 1 -47.16330 -62.88440 -1.10806 
213 1 -45.59120 -61.31230 0.46611 
214 1 -44.01910 -62.88440 -1.09166 
215 1 -42.44700 -61.31230 0.48305 
216 1 -40.87490 -62.88440 -1.07446 
217 1 -39.30280 -61.31230 0.50082 
218 1 -37.73070 -62.88440 -1.05647 
219 1 -36.15850 -61.31230 0.51943 
220 1 -34.58640 -62.88440 -1.03766 
221 1 -33.01430 -61.31230 0.53891 
222 1 -31.44220 -62.88440 -1.01804 
223 1 -29.87010 -61.31230 0.55923 
224 1 -28.29800 -62.88440 -0.99762 
225 1 -26.72590 -61.31230 0.58039 
226 1 -25.15380 -62.88440 -0.97643 
227 1 -23.58170 -61.31230 0.60236 
228 1 -22.00950 -62.88440 -0.95449 
229 1 -20.43740 -61.31230 0.62509 
230 1 -18.86530 -62.88440 -0.93185 
231 1 -17.29320 -61.31230 0.64854 
232 1 -15.72110 -62.88440 -0.90859 
233 1 -14.14900 -61.31230 0.67262 
234 1 -12.57690 -62.88440 -0.88477 
235 1 -11.00480 -61.31230 0.69725 
236 1 -9.43266 -62.88440 -0.86050 
237 1 -7.86055 -61.31230 0.72232 
238 1 -6.28844 -62.88440 -0.83586 
239 1 -4.71633 -61.31230 0.74771 
240 1 -3.14422 -62.88440 -0.81098 
241 1 -1.57211 -61.31230 0.77331 
242 1 -64.45650 -58.16810 0.36738 
243 1 -62.88440 -59.74020 -1.19191 
244 1 -61.31230 -58.16810 0.37986 
245 1 -59.74020 -59.74020 -1.17908 
246 1 -58.16810 -58.16810 0.39303 
247 1 -56.59600 -59.74020 -1.16556 
248 1 -55.02390 -58.16810 0.40693 
249 1 -53.45180 -59.74020 -1.15131 
250 1 -51.87960 -58.16810 0.42160 
251 1 -50.30750 -59.74020 -1.13629 
252 1 -48.73540 -58.16810 0.43708 
253 1 -47.16330 -59.74020 -1.12047 
254 1 -45.59120 -58.16810 0.45340 
255 1 -44.01910 -59.74020 -1.10382 
256 1 -42.44700 -58.16810 0.47061 
257 1 -40.87490 -59.74020 -1.08631 
258 1 -39.30280 -58.16810 0.48872 
259 1 -37.73070 -59.74020 -1.06793 
260 1 -36.15850 -58.16810 0.50776 
261 1 -34.58640 -59.74020 -1.04865 
262 1 -33.01430 -58.16810 0.52775 
263 1 -31.44220 -59.74020 -1.02847 
264 1 -29.87010 -58.16810 0.54869 
265 1 -28.29800 -59.74020 -1.00739 
266 1 -26.72590 -58.16810 0.57057 
267 1 -25.15380 -59.74020 -0.98544 
268 1 -23.58170 -58.16810 0.59336 
269 1 -22.00950 -59.74020 -0.96265 
270 1 -20.43740 -58.16810 0.61702 
271 1 -18.86530 -59.74020 -0.93907 
272 1 -17.29320 -58.16810 0.64150 
273 1 -15.72110 -59.74020 -0.91477 
274 1 -14.14900 -58.16810 0.66671 
275 1 -12.57690 -59.74020 -0.88983 
276 1 -11.00480 -58.16810 0.69255 
277 1 -9.43266 -59.74020 -0.86435 
278 1 -7.86055 -58.16810 0.71891 
279 1 -6.28844 -59.74020 -0.83846 
280 1 -4.71633 -58.16810 0.74565 
281 1 -3.14422 -59.74020 -0.81229 
282 1 -1.57211 -58.16810 0.77262 
283 1 -67.60080 -55.02390 0.34187 
284 1 -66.02860 -56.59600 -1.21751 
285 1 -64.45650 -55.02390 0.35360 
286 1 -62.88440 -56.59600 -1.20540 
287 1 -61.31230 -55.02390 0.36600 
288 1 -59.74020 -56.59600 -1.19261 
289 1 -58.16810 -55.02390 0.37913 
290 1 -56.59600 -56.59600 -1.17908 
291 1 -55.02390 -55.02390 0.39303 
292 1 -53.45180 -56.59600 -1.16479 
293 1 -51.87960 -55.02390 0.40774 
294 1 -50.30750 -56.59600 -1.14967 
295 1 -48.73540 -55.02390 0.42332 
296 1 -47.16330 -56.59600 -1.13371 
297 1 -45.59120 -55.02390 0.43981 
298 1 -44.01910 -56.59600 -1.11684 
299 1 -42.44700 -55.02390 0.45726 
300 1 -40.87490 -56.59600 -1.09904 
301 1 -39.30280 -55.02390 0.47569 
302 1 -37.73070 -56.59600 -1.08028 
303 1 -36.15850 -55.02390 0.49514 
304 1 -34.58640 -56.59600 -1.06053 
305 1 -33.01430 -55.02390 0.51565 
306 1 -31.44220 -56.59600 -1.03979 
307 1 -29.87010 -55.02390 0.53721 
308 1 -28.29800 -56.59600 -1.01804 
309 1 -26.72590 -55.02390 0.55983 
310 1 -25.15380 -56.59600 -0.99530 
311 1 -23.58170 -55.02390 0.58348 
312 1 -22.00950 -56.59600 -0.97161 
313 1 -20.43740 -55.02390 0.60814 
314 1 -18.86530 -56.59600 -0.94701 
315 1 -17.29320 -55.02390 0.63373 
316 1 -15.72110 -56.59600 -0.92158 
317 1 -14.14900 -55.02390 0.66017 
318 1 -12.57690 -56.59600 -0.89542 
319 1 -11.00480 -55.02390 0.68734 
320 1 -9.43266 -56.59600 -0.86863 
321 1 -7.86055 -55.02390 0.71512 
322 1 -6.28844 -56.59600 -0.84135 
323 1 -4.71633 -55.02390 0.74335 
324 1 -3.14422 -56.59600 -0.81374 
325 1 -1.57211 -55.02390 0.77185 
326 1 -70.74500 -51.87960 0.31663 
327 1 -69.17290 -53.45180 -1.24290 
328 1 -67.60080 -51.87960 0.32755 
329 1 -66.02860 -53.45180 -1.23157 
330 1 -64.45650 -51.87960 0.33913 
331 1 -62.88440 -53.45180 -1.21958 
332 1 -61.31230 -51.87960 0.35141 
333 1 -59.74020 -53.45180 -1.20686 
334 1 -58.16810 -51.87960 0.36446 
335 1 -56.59600 -53.45180 -1.19338 
336 1 -55.02390 -51.87960 0.37831 
337 1 -53.45180 -53.45180 -1.17908 
338 1 -51.87960 -51.87960 0.39303 
339 1 -50.30750 -53.45180 -1.16392 
340 1 -48.73540 -51.87960 0.40866 
341 1 -47.16330 -53.45180 -1.14784 
342 1 -45.59120 -51.87960 0.42527 
343 1 -44.01910 -53.45180 -1.13080 
344 1 -42.44700 -51.87960 0.44291 
345 1 -40.87490 -53.45180 -1.11274 
346 1 -39.30280 -51.87960 0.46163 
347 1 -37.73070 -53.45180 -1.09363 
348 1 -36.15850 -51.87960 0.48148 
349 1 -34.58640 -53.45180 -1.07342 
350 1 -33.01430 -51.87960 0.50248 
351 1 -31.44220 -53.45180 -1.05211 
352 1 -29.87010 -51.87960 0.52466 
353 1 -28.29800 -53.45180 -1.02967 
354 1 -26.72590 -51.87960 0.54804 
355 1 -25.15380 -53.45180 -1.00612 
356 1 -23.58170 -51.87960 0.57261 
357 1 -22.00950 -53.45180 -0.98147 
358 1 -20.43740 -51.87960 0.59831 
359 1 -18.86530 -53.45180 -0.95579 
360 1 -17.29320 -51.87960 0.62510 
361 1 -15.72110 -53.45180 -0.92914 
362 1 -14.14900 -51.87960 0.65288 
363 1 -12.57690 -53.45180 -0.90163 
364 1 -11.00480 -51.87960 0.68153 
365 1 -9.43266 -53.45180 -0.87339 
366 1 -7.86055 -51.87960 0.71089 
367 1 -6.28844 -53.45180 -0.84458 
368 1 -4.71633 -51.87960 0.74077 
369 1 -3.14422 -53.45180 -0.81537 
370 1 -1.57211 -51.87960 0.77099 
371 1 -70.74500 -48.73540 0.30185 
372 1 -69.17290 -50.30750 -1.25746 
373 1 -67.60080 -48.73540 0.31256 
374 1 -66.02860 -50.30750 -1.24631 
375 1 -64.45650 -48.73540 0.32395 
376 1 -62.88440 -50.30750 -1.23447 
377 1 -61.31230 -48.73540 0.33607 
378 1 -59.74020 -50.30750 -1.22188 
379 1 -58.16810 -48.73540 0.34898 
380 1 -56.59600 -50.30750 -1.20849 
381 1 -55.02390 -48.73540 0.36273 
382 1 -53.45180 -50.30750 -1.19425 
383 1 -51.87960 -48.73540 0.37739 
384 1 -50.30750 -50.30750 -1.17908 
385 1 -48.73540 -48.73540 0.39303 
386 1 -47.16330 -50.30750 -1.16294 
387 1 -45.59120 -48.73540 0.40970 
388 1 -44.01910 -50.30750 -1.14576 
389 1 -42.44700 -48.73540 0.42749 
390 1 -40.87490 -50.30750 -1.12749 
391 1 -39.30280 -48.73540 0.44645 
392 1 -37.73070 -50.30750 -1.10806 
393 1 -36.15850 -48.73540 0.46664 
394 1 -34.58640 -50.30750 -1.08743 
395 1 -33.01430 -48.73540 0.48812 
396 1 -31.44220 -50.30750 -1.06556 
397 1 -29.87010 -48.73540 0.51093 
398 1 -28.29800 -50.30750 -1.04243 
399 1 -26.72590 -48.73540 0.53508 
400 1 -25.15380 -50.30750 -1.01803 
401 1 -23.58170 -48.73540 0.56058 
402 1 -22.00950 -50.30750 -0.99239 
403 1 -20.43740 -48.73540 0.58740 
404 1 -18.86530 -50.30750 -0.96554 
405 1 -17.29320 -48.73540 0.61548 
406 1 -15.72110 -50.30750 -0.93756 
407 1 -14.14900 -48.73540 0.64473 
408 1 -12.57690 -50.30750 -0.90858 
409 1 -11.00480 -48.73540 0.67500 
410 1 -9.43266 -50.30750 -0.87873 
411 1 -7.86055 -48.73540 0.70612 
412 1 -6.28844 -50.30750 -0.84820 
413 1 -4.71633 -48.73540 0.73787 
414 1 -3.14422 -50.30750 -0.81720 
415 1 -1.57211 -48.73540 0.77002 
416 1 -73.88920 -45.59120 0.27663 
417 1 -72.31710 -47.16330 -1.28293 
418 1 -70.74500 -45.59120 0.28645 
419 1 -69.17290 -47.16330 -1.27267 
420 1 -67.60080 -45.59120 0.29691 
421 1 -66.02860 -47.16330 -1.26174 
422 1 -64.45650 -45.59120 0.30805 
423 1 -62.88440 -47.16330 -1.25010 
424 1 -61.31230 -45.59120 0.31995 
425 1 -59.74020 -47.16330 -1.23770 
426 1 -58.16810 -45.59120 0.33265 
427 1 -56.59600 -47.16330 -1.22446 
428 1 -55.02390 -45.59120 0.34624 
429 1 -53.45180 -47.16330 -1.21032 
430 1 -51.87960 -45.59120 0.36078 
431 1 -50.30750 -47.16330 -1.19522 
432 1 -48.73540 -45.59120 0.37635 
433 1 -47.16330 -47.16330 -1.17908 
434 1 -45.59120 -45.59120 0.39303 
435 1 -44.01910 -47.16330 -1.16183 
436 1 -42.44700 -45.59120 0.41090 
437 1 -40.87490 -47.16330 -1.14339 
438 1 -39.30280 -45.59120 0.43004 
439 1 -37.73070 -47.16330 -1.12370 
440 1 -36.15850 -45.59120 0.45053 
441 1 -34.58640 -47.16330 -1.10268 
442 1 -33.01430 -45.59120 0.47244 
443 1 -31.44220 -47.16330 -1.08028 
444 1 -29.87010 -45.59120 0.49584 
445 1 -28.29800 -47.16330 -1.05646 
446 1 -26.72590 -45.59120 0.52076 
447 1 -25.15380 -47.16330 -1.03120 
448 1 -23.58170 -45.59120 0.54722 
449 1 -22.00950 -47.16330 -1.00450 
450 1 -20.43740 -45.59120 0.57522 
451 1 -18.86530 -47.16330 -0.97641 
452 1 -17.29320 -45.59120 0.60469 
453 1 -15.72110 -47.16330 -0.94700 
454 1 -14.14900 -45.59120 0.63554 
455 1 -12.57690 -47.16330 -0.91639 
456 1 -11.00480 -45.59120 0.66761 
457 1 -9.43266 -47.16330 -0.88475 
458 1 -7.86055 -45.59120 0.70070 
459 1 -6.28844 -47.16330 -0.85230 
460 1 -4.71633 -45.59120 0.73457 
461 1 -3.14422 -47.16330 -0.81927 
462 1 -1.57211 -45.59120 0.76891 
463 1 -77.03340 -42.44700 0.25200 
464 1 -75.46130 -44.01910 -1.30787 
465 1 -73.88920 -42.44700 0.26091 
466 1 -72.31710 -44.01910 -1.29851 
467 1 -70.74500 -42.44700 0.27041 
468 1 -69.17290 -44.01910 -1.28853 
469 1 -67.60080 -42.44700 0.28056 
470 1 -66.02860 -44.01910 -1.27788 
471 1 -64.45650 -42.44700 0.29140 
472 1 -62.88440 -44.01910 -1.26651 
473 1 -61.31230 -42.44700 0.30301 
474 1 -59.74020 -44.01910 -1.25435 
475 1 -58.16810 -42.44700 0.31545 
476 1 -56.59600 -44.01910 -1.24132 
477 1 -55.02390 -42.44700 0.32880 
478 1 -53.45180 -44.01910 -1.22737 
479 1 -51.87960 -42.44700 0.34314 
480 1 -50.30750 -44.01910 -1.21240 
481 1 -48.73540 -42.44700 0.35856 
482 1 -47.16330 -44.01910 -1.19634 
483 1 -45.59120 -42.44700 0.37516 
484 1 -44.01910 -44.01910 -1.17908 
485 1 -42.44700 -42.44700 0.39303 
486 1 -40.87490 -44.01910 -1.16055 
487 1 -39.30280 -42.44700 0.41227 
488 1 -37.73070 -44.01910 -1.14066 
489 1 -36.15850 -42.44700 0.43299 
490 1 -34.58640 -44.01910 -1.11930 
491 1 -33.01430 -42.44700 0.45527 
492 1 -31.44220 -44.01910 -1.09642 
493 1 -29.87010 -42.44700 0.47922 
494 1 -28.29800 -44.01910 -1.07193 
495 1 -26.72590 -42.44700 0.50489 
496 1 -25.15380 -44.01910 -1.04581 
497 1 -23.58170 -42.44700 0.53233 
498 1 -22.00950 -44.01910 -1.01803 
499 1 -20.43740 -42.44700 0.56156 
500 1 -18.86530 -44.01910 -0.98862 
501 1 -17.29320 -42.44700 0.59252 
502 1 -15.72110 -44.01910 -0.95765 
503 1 -14.14900 -42.44700 0.62512 
504 1 -12.57690 -44.01910 -0.92525 
505 1 -11.00480 -42.44700 0.65919 
506 1 -9.43266 -44.01910 -0.89160 
507 1 -7.86055 -42.44700 0.69452 
508 1 -6.28844 -44.01910 -0.85697 
509 1 -4.71633 -42.44700 0.73078 
510 1 -3.14422 -44.01910 -0.82163 
511 1 -1.57211 -42.44700 0.76764 
512 1 -77.03340 -39.30280 0.23606 
513 1 -75.46130 -40.87490 -1.32371 
514 1 -73.88920 -39.30280 0.24461 
515 1 -72.31710 -40.87490 -1.31469 
516 1 -70.74500 -39.30280 0.25374 
517 1 -69.17290 -40.87490 -1.30506 
518 1 -67.60080 -39.30280 0.26351 
519 1 -66.02860 -40.87490 -1.29475 
520 1 -64.45650 -39.30280 0.27399 
521 1 -62.88440 -40.87490 -1.28370 
522 1 -61.31230 -39.30280 0.28524 
523 1 -59.74020 -40.87490 -1.27185 
524 1 -58.16810 -39.30280 0.29734 
525 1 -56.59600 -40.87490 -1.25912 
526 1 -55.02390 -39.30280 0.31037 
527 1 -53.45180 -40.87490 -1.24543 
528 1 -51.87960 -39.30280 0.32442 
529 1 -50.30750 -40.87490 -1.23068 
530 1 -48.73540 -39.30280 0.33960 
531 1 -47.16330 -40.87490 -1.21477 
532 1 -45.59120 -39.30280 0.35602 
533 1 -44.01910 -40.87490 -1.19761 
534 1 -42.44700 -39.30280 0.37379 
535 1 -40.87490 -40.87490 -1.17908 
536 1 -39.30280 -39.30280 0.39303 
537 1 -37.73070 -40.87490 -1.15907 
538 1 -36.15850 -39.30280 0.41387 
539 1 -34.58640 -40.87490 -1.13747 
540 1 -33.01430 -39.30280 0.43644 
541 1 -31.44220 -40.87490 -1.11416 
542 1 -29.87010 -39.30280 0.46087 
543 1 -28.29800 -40.87490 -1.08906 
544 1 -26.72590 -39.30280 0.48724 
545 1 -25.15380 -40.87490 -1.06208 
546 1 -23.58170 -39.30280 0.51566 
547 1 -22.00950 -40.87490 -1.03319 
548 1 -20.43740 -39.30280 0.54614 
549 1 -18.86530 -40.87490 -1.00239 
550 1 -17.29320 -39.30280 0.57869 
551 1 -15.72110 -40.87490 -0.96973 
552 1 -14.14900 -39.30280 0.61320 
553 1 -12.57690 -40.87490 -0.93535 
554 1 -11.00480 -39.30280 0.64952 
555 1 -9.43266 -40.87490 -0.89946 
556 1 -7.86055 -39.30280 0.68737 
557 1 -6.28844 -40.87490 -0.86234 
558 1 -4.71633 -39.30280 0.72640 
559 1 -3.14422 -40.87490 -0.82436 
560 1 -1.57211 -39.30280 0.76617 
561 1 -80.17760 -36.15850 0.21198 
562 1 -78.60550 -37.73070 -1.34819 
563 1 -77.03340 -36.15850 0.21958 
564 1 -75.46130 -37.73070 -1.34012 
565 1 -73.88920 -36.15850 0.22771 
566 1 -72.31710 -37.73070 -1.33149 
567 1 -70.74500 -36.15850 0.23642 
568 1 -69.17290 -37.73070 -1.32225 
569 1 -67.60080 -36.15850 0.24576 
570 1 -66.02860 -37.73070 -1.31234 
571 1 -64.45650 -36.15850 0.25580 
572 1 -62.88440 -37.73070 -1.30170 
573 1 -61.31230 -36.15850 0.26662 
574 1 -59.74020 -37.73070 -1.29024 
575 1 -58.16810 -36.15850 0.27829 
576 1 -56.59600 -37.73070 -1.27788 
577 1 -55.02390 -36.15850 0.29091 
578 1 -53.45180 -37.73070 -1.26454 
579 1 -51.87960 -36.15850 0.30458 
580 1 -50.30750 -37.73070 -1.25011 
581 1 -48.73540 -36.15850 0.31941 
582 1 -47.16330 -37.73070 -1.23447 
583 1 -45.59120 -36.15850 0.33553 
584 1 -44.01910 -37.73070 -1.21751 
585 1 -42.44700 -36.15850 0.35307 
586 1 -40.87490 -37.73070 -1.19909 
587 1 -39.30280 -36.15850 0.37218 
588 1 -37.73070 -37.73070 -1.17908 
589 1 -36.15850 -36.15850 0.39303 
590 1 -34.58640 -37.73070 -1.15733 
591 1 -33.01430 -36.15850 0.41576 
592 1 -31.44220 -37.73070 -1.13370 
593 1 -29.87010 -36.15850 0.44056 
594 1 -28.29800 -37.73070 -1.10805 
595 1 -26.72590 -36.15850 0.46756 
596 1 -25.15380 -37.73070 -1.08027 
597 1 -23.58170 -36.15850 0.49690 
598 1 -22.00950 -37.73070 -1.05027 
599 1 -20.43740 -36.15850 0.52866 
600 1 -18.86530 -37.73070 -1.01802 
601 1 -17.29320 -36.15850 0.56287 
602 1 -15.72110 -37.73070 -0.98355 
603 1 -14.14900 -36.15850 0.59948 
604 1 -12.57690 -37.73070 -0.94699 
605 1 -11.00480 -36.15850 0.63830 
606 1 -9.43266 -37.73070 -0.90855 
607 1 -7.86055 -36.15850 0.67904 
608 1 -6.28844 -37.73070 -0.86859 
609 1 -4.71633 -36.15850 0.72127 
610 1 -3.14422 -37.73070 -0.82754 
611 1 -1.57211 -36.15850 0.76444 
612 1 -80.17760 -33.01430 0.19543 
613 1 -78.60550 -34.58640 -1.36471 
614 1 -77.03340 -33.01430 0.20258 
615 1 -75.46130 -34.58640 -1.35708 
616 1 -73.88920 -33.01430 0.21024 
617 1 -72.31710 -34.58640 -1.34890 
618 1 -70.74500 -33.01430 0.21846 
619 1 -69.17290 -34.58640 -1.34012 
620 1 -67.60080 -33.01430 0.22731 
621 1 -66.02860 -34.58640 -1.33068 
622 1 -64.45650 -33.01430 0.23685 
623 1 -62.88440 -34.58640 -1.32051 
624 1 -61.31230 -33.01430 0.24715 
625 1 -59.74020 -34.58640 -1.30952 
626 1 -58.16810 -33.01430 0.25830 
627 1 -56.59600 -34.58640 -1.29763 
628 1 -55.02390 -33.01430 0.27041 
629 1 -53.45180 -34.58640 -1.28474 
630 1 -51.87960 -33.01430 0.28358 
631 1 -50.30750 -34.58640 -1.27074 
632 1 -48.73540 -33.01430 0.29793 
633 1 -47.16330 -34.58640 -1.25549 
634 1 -45.59120 -33.01430 0.31361 
635 1 -44.01910 -34.58640 -1.23886 
636 1 -42.44700 -33.01430 0.33078 
637 1 -40.87490 -34.58640 -1.22070 
638 1 -39.30280 -33.01430 0.34961 
639 1 -37.73070 -34.58640 -1.20083 
640 1 -36.15850 -33.01430 0.37029 
641 1 -34.58640 -34.58640 -1.17908 
642 1 -33.01430 -33.01430 0.39303 
643 1 -31.44220 -34.58640 -1.15526 
644 1 -29.87010 -33.01430 0.41803 
645 1 -28.29800 -34.58640 -1.12919 
646 1 -26.72590 -33.01430 0.44553 
647 1 -25.15380 -34.58640 -1.10069 
648 1 -23.58170 -33.01430 0.47570 
649 1 -22.00950 -34.58640 -1.06962 
650 1 -20.43740 -33.01430 0.50871 
651 1 -18.86530 -34.58640 -1.03589 
652 1 -17.29320 -33.01430 0.54465 
653 1 -15.72110 -34.58640 -0.99948 
654 1 -14.14900 -33.01430 0.58351 
655 1 -12.57690 -34.58640 -0.96051 
656 1 -11.00480 -33.01430 0.62514 
657 1 -9.43266 -34.58640 -0.91919 
658 1 -7.86055 -33.01430 0.66919 
659 1 -6.28844 -34.58640 -0.87594 
660 1 -4.71633 -33.01430 0.71517 
661 1 -3.14422 -34.58640 -0.83129 
662 1 -1.57211 -33.01430 0.76239 
663 1 -81.74970 -31.44220 -1.38840 
664 1 -80.17760 -29.87010 0.17842 
665 1 -78.60550 -31.44220 -1.38173 
666 1 -77.03340 -29.87010 0.18507 
667 1 -75.46130 -31.44220 -1.37458 
668 1 -73.88920 -29.87010 0.19221 
669 1 -72.31710 -31.44220 -1.36691 
670 1 -70.74500 -29.87010 0.19989 
671 1 -69.17290 -31.44220 -1.35865 
672 1 -67.60080 -29.87010 0.20817 
673 1 -66.02860 -31.44220 -1.34975 
674 1 -64.45650 -29.87010 0.21712 
675 1 -62.88440 -31.44220 -1.34012 
676 1 -61.31230 -29.87010 0.22682 
677 1 -59.74020 -31.44220 -1.32970 
678 1 -58.16810 -29.87010 0.23736 
679 1 -56.59600 -31.44220 -1.31838 
680 1 -55.02390 -29.87010 0.24885 
681 1 -53.45180 -31.44220 -1.30606 
682 1 -51.87960 -29.87010 0.26139 
683 1 -50.30750 -31.44220 -1.29260 
684 1 -48.73540 -29.87010 0.27513 
685 1 -47.16330 -31.44220 -1.27789 
686 1 -45.59120 -29.87010 0.29022 
687 1 -44.01910 -31.44220 -1.26175 
688 1 -42.44700 -29.87010 0.30684 
689 1 -40.87490 -31.44220 -1.24401 
690 1 -39.30280 -29.87010 0.32519 
691 1 -37.73070 -31.44220 -1.22446 
692 1 -36.15850 -29.87010 0.34550 
693 1 -34.58640 -31.44220 -1.20290 
694 1 -33.01430 -29.87010 0.36802 
695 1 -31.44220 -31.44220 -1.17908 
696 1 -29.87010 -29.87010 0.39303 
697 1 -28.29800 -31.44220 -1.15276 
698 1 -26.72590 -29.87010 0.42081 
699 1 -25.15380 -31.44220 -1.12369 
700 1 -23.58170 -29.87010 0.45165 
701 1 -22.00950 -31.44220 -1.09164 
702 1 -20.43740 -29.87010 0.48582 
703 1 -18.86530 -31.44220 -1.05644 
704 1 -17.29320 -29.87010 0.52349 
705 1 -15.72110 -31.44220 -1.01801 
706 1 -14.14900 -29.87010 0.56475 
707 1 -12.57690 -31.44220 -0.97639 
708 1 -11.00480 -29.87010 0.60950 
709 1 -9.43266 -31.44220 -0.93180 
710 1 -7.86055 -29.87010 0.65740 
711 1 -6.28844 -31.44220 -0.88471 
712 1 -4.71633 -29.87010 0.70783 
713 1 -3.14422 -31.44220 -0.83579 
714 1 -1.57211 -29.87010 0.75990 
715 1 -83.32190 -26.72590 0.15529 
716 1 -81.74970 -28.29800 -1.40538 
717 1 -80.17760 -26.72590 0.16097 
718 1 -78.60550 -28.29800 -1.39922 
719 1 -77.03340 -26.72590 0.16707 
720 1 -75.46130 -28.29800 -1.39261 
721 1 -73.88920 -26.72590 0.17364 
722 1 -72.31710 -28.29800 -1.38550 
723 1 -70.74500 -26.72590 0.18071 
724 1 -69.17290 -28.29800 -1.37783 
725 1 -67.60080 -26.72590 0.18836 
726 1 -66.02860 -28.29800 -1.36953 
727 1 -64.45650 -26.72590 0.19665 
728 1 -62.88440 -28.29800 -1.36054 
729 1 -61.31230 -26.72590 0.20567 
730 1 -59.74020 -28.29800 -1.35077 
731 1 -58.16810 -26.72590 0.21549 
732 1 -56.59600 -28.29800 -1.34013 
733 1 -55.02390 -26.72590 0.22623 
734 1 -53.45180 -28.29800 -1.32849 
735 1 -51.87960 -26.72590 0.23801 
736 1 -50.30750 -28.29800 -1.31573 
737 1 -48.73540 -26.72590 0.25098 
738 1 -47.16330 -28.29800 -1.30171 
739 1 -45.59120 -26.72590 0.26530 
740 1 -44.01910 -28.29800 -1.28623 
741 1 -42.44700 -26.72590 0.28116 
742 1 -40.87490 -28.29800 -1.26911 
743 1 -39.30280 -26.72590 0.29881 
744 1 -37.73070 -28.29800 -1.25011 
745 1 -36.15850 -26.72590 0.31850 
746 1 -34.58640 -28.29800 -1.22897 
747 1 -33.01430 -26.72590 0.34053 
748 1 -31.44220 -28.29800 -1.20541 
749 1 -29.87010 -26.72590 0.36524 
750 1 -28.29800 -28.29800 -1.17908 
751 1 -26.72590 -26.72590 0.39303 
752 1 -25.15380 -28.29800 -1.14967 
753 1 -23.58170 -26.72590 0.42427 
754 1 -22.00950 -28.29800 -1.11683 
755 1 -20.43740 -26.72590 0.45939 
756 1 -18.86530 -28.29800 -1.08026 
757 1 -17.29320 -26.72590 0.49871 
758 1 -15.72110 -28.29800 -1.03976 
759 1 -14.14900 -26.72590 0.54247 
760 1 -12.57690 -28.29800 -0.99526 
761 1 -11.00480 -26.72590 0.59068 
762 1 -9.43266 -28.29800 -0.94696 
763 1 -7.86055 -26.72590 0.64303 
764 1 -6.28844 -28.29800 -0.89535 
765 1 -4.71633 -26.72590 0.69880 
766 1 -3.14422 -28.29800 -0.84127 
767 1 -1.57211 -26.72590 0.75683 
768 1 -83.32190 -23.58170 0.13798 
769 1 -81.74970 -25.15380 -1.42277 
770 1 -80.17760 -23.58170 0.14310 
771 1 -78.60550 -25.15380 -1.41717 
772 1 -77.03340 -23.58170 0.14861 
773 1 -75.46130 -25.15380 -1.41114 
774 1 -73.88920 -23.58170 0.15455 
775 1 -72.31710 -25.15380 -1.40464 
776 1 -70.74500 -23.58170 0.16097 
777 1 -69.17290 -25.15380 -1.39762 
778 1 -67.60080 -23.58170 0.16792 
779 1 -66.02860 -25.15380 -1.39001 
780 1 -64.45650 -23.58170 0.17547 
781 1 -62.88440 -25.15380 -1.38174 
782 1 -61.31230 -23.58170 0.18370 
783 1 -59.74020 -25.15380 -1.37272 
784 1 -58.16810 -23.58170 0.19270 
785 1 -56.59600 -25.15380 -1.36286 
786 1 -55.02390 -23.58170 0.20257 
787 1 -53.45180 -25.15380 -1.35205 
788 1 -51.87960 -23.58170 0.21345 
789 1 -50.30750 -25.15380 -1.34013 
790 1 -48.73540 -23.58170 0.22548 
791 1 -47.16330 -25.15380 -1.32697 
792 1 -45.59120 -23.58170 0.23883 
793 1 -44.01910 -25.15380 -1.31236 
794 1 -42.44700 -23.58170 0.25372 
795 1 -40.87490 -25.15380 -1.29609 
796 1 -39.30280 -23.58170 0.27040 
797 1 -37.73070 -25.15380 -1.27789 
798 1 -36.15850 -23.58170 0.28916 
799 1 -34.58640 -25.15380 -1.25747 
800 1 -33.01430 -23.58170 0.31036 
801 1 -31.44220 -25.15380 -1.23448 
802 1 -29.87010 -23.58170 0.33440 
803 1 -28.29800 -25.15380 -1.20850 
804 1 -26.72590 -23.58170 0.36178 
805 1 -25.15380 -25.15380 -1.17908 
806 1 -23.58170 -23.58170 0.39303 
807 1 -22.00950 -25.15380 -1.14576 
808 1 -20.43740 -23.58170 0.42873 
809 1 -18.86530 -25.15380 -1.10804 
810 1 -17.29320 -23.58170 0.46945 
811 1 -15.72110 -25.15380 -1.06553 
812 1 -14.14900 -23.58170 0.51568 
813 1 -12.57690 -25.15380 -1.01799 
814 1 -11.00480 -23.58170 0.56765 
815 1 -9.43266 -25.15380 -0.96548 
816 1 -7.86055 -23.58170 0.62517 
817 1 -6.28844 -25.15380 -0.90851 
818 1 -4.71633 -23.58170 0.68744 
819 1 -3.14422 -25.15380 -0.84811 
820 1 -1.57211 -23.58170 0.75294 
821 1 -84.89400 -22.00950 -1.44521 
822 1 -83.32190 -20.43740 0.12032 
823 1 -81.74970 -22.00950 -1.44055 
824 1 -80.17760 -20.43740 0.12485 
825 1 -78.60550 -22.00950 -1.43553 
826 1 -77.03340 -20.43740 0.12973 
827 1 -75.46130 -22.00950 -1.43014 
828 1 -73.88920 -20.43740 0.13499 
829 1 -72.31710 -22.00950 -1.42431 
830 1 -70.74500 -20.43740 0.14069 
831 1 -69.17290 -22.00950 -1.41800 
832 1 -67.60080 -20.43740 0.14687 
833 1 -66.02860 -22.00950 -1.41115 
834 1 -64.45650 -20.43740 0.15360 
835 1 -62.88440 -22.00950 -1.40368 
836 1 -61.31230 -20.43740 0.16096 
837 1 -59.74020 -22.00950 -1.39551 
838 1 -58.16810 -20.43740 0.16903 
839 1 -56.59600 -22.00950 -1.38656 
840 1 -55.02390 -20.43740 0.17792 
841 1 -53.45180 -22.00950 -1.37669 
842 1 -51.87960 -20.43740 0.18774 
843 1 -50.30750 -22.00950 -1.36578 
844 1 -48.73540 -20.43740 0.19865 
845 1 -47.16330 -22.00950 -1.35366 