ITEM: TIMESTEP
155
ITEM: NUMBER OF ATOMS
68951
ITEM: BOX BOUNDS pp pp pp
-3.5215275199999996e+02 3.5215275199999996e+02
-3.5215275199999996e+02 3.5215275199999996e+02
0.0000000000000000e+00 4.4019093999999996e+01
ITEM: ATOMS id type x y z
1 1 -14.149 -86.4661 0.70493
16841 1 -3.22141 -3.17388 39.6913
16833 1 -15.7734 -3.14999 39.3809
16825 1 -28.3272 -3.14609 39.3471
16817 1 -40.8896 -3.14486 39.3352
16809 1 -53.4582 -3.14443 39.3295
16801 1 -66.0286 -3.14422 39.3265
16793 1 -78.6055 -3.14422 39.3227
9 1 -20.4374 -83.3219 0.66573
16785 1 -4.76399 -4.73706 41.266
16777 1 -17.3384 -4.72366 40.9905
16769 1 -29.8963 -4.71908 40.9433
16761 1 -42.46 -4.71726 40.9248
16753 1 -55.0294 -4.71668 40.9154
16745 1 -67.6008 -4.71633 40.9097
16737 1 -80.1776 -4.71633 40.9042
17 1 -7.86055 -83.3219 0.73904
16729 1 -6.30574 -9.45046 39.8049
16721 1 -18.8953 -9.44274 39.5238
16713 1 -31.4628 -9.4374 39.4405
16705 1 -44.0296 -9.43426 39.4038
16697 1 -56.6003 -9.43333 39.3835
16689 1 -69.1729 -9.43266 39.3706
16681 1 -81.7497 -9.43266 39.3602
25 1 -29.8701 -80.1776 0.60763
16673 1 -7.87641 -11.0216 41.3576
16665 1 -20.4628 -11.0145 41.1129
16657 1 -33.0321 -11.0095 41.0287
16649 1 -45.6004 -11.0064 40.9894
16641 1 -58.1715 -11.0054 40.967
16633 1 -70.745 -11.0048 40.9521
16625 1 -83.3219 -11.0048 40.9406
33 1 -17.2932 -80.1776 0.6798
16617 1 -9.44146 -15.737 39.8267
16609 1 -22.0253 -15.7305 39.6085
16601 1 -34.5991 -15.7261 39.511
16593 1 -47.1704 -15.723 39.4606
16585 1 -59.7424 -15.7217 39.4306
16577 1 -72.3171 -15.7211 39.4099
16569 1 -84.894 -15.7211 39.3944
41 1 -4.71633 -80.1776 0.75671
16561 1 -11.013 -17.308 41.3841
16553 1 -23.5952 -17.302 41.1876
16545 1 -36.1693 -17.2977 41.0936
16537 1 -48.7414 -17.295 41.0428
16529 1 -61.3137 -17.2936 41.0118
16521 1 -73.8892 -17.2932 40.9899
16513 1 -1.57234 -20.4576 41.6392
49 1 -33.0143 -77.0334 0.58347
16505 1 -14.156 -20.4502 41.3626
16497 1 -26.7359 -20.4449 41.1988
16489 1 -39.3104 -20.4406 41.1116
16481 1 -51.8837 -20.4389 41.0608
16473 1 -64.4565 -20.4374 41.0285
16465 1 -77.0334 -20.4374 41.0046
16457 1 -4.71794 -23.6 41.5748
57 1 -20.4374 -77.0334 0.65633
16449 1 -17.2992 -23.5925 41.3476
16441 1 -29.8776 -23.5878 41.2073
16433 1 -42.4526 -23.5843 41.1263
16425 1 -55.0262 -23.5826 41.0764
16417 1 -67.6008 -23.5817 41.0428
16409 1 -80.1776 -23.5817 41.018
16401 1 -9.43512 -28.3127 39.9362
65 1 -7.86055 -77.0334 0.73523
16393 1 -22.0142 -28.3064 39.76
16385 1 -34.5915 -28.3018 39.6448
16377 1 -47.1665 -28.2998 39.5719
16369 1 -59.7402 -28.298 39.5241
16361 1 -72.3171 -28.298 39.4894
16353 1 -1.57218 -29.887 41.645
16345 1 -14.1522 -29.882 41.4454
73 1 -40.8749 -75.4613 42.9846
16337 1 -26.7305 -29.8765 41.2964
16329 1 -39.3068 -29.8729 41.1989
16321 1 -51.8815 -29.8712 41.1355
16313 1 -64.4565 -29.8701 41.092
16305 1 -77.0334 -29.8701 41.06
16297 1 -7.86212 -33.0286 41.5516
16289 1 -20.4409 -33.0229 41.3868
81 1 -28.298 -75.4613 43.0535
16281 1 -33.0182 -33.0182 41.2679
16273 1 -45.5936 -33.016 41.1877
16265 1 -58.1681 -33.0143 41.1332
16257 1 -70.745 -33.0143 41.0934
16249 1 -3.14459 -37.7446 40.0542
16241 1 -15.7237 -37.7405 39.8958
16233 1 -28.3012 -37.7354 39.7682
89 1 -15.7211 -75.4613 43.1303
16225 1 -40.877 -37.7326 39.6755
16217 1 -53.4522 -37.731 39.6102
16209 1 -66.0286 -37.7307 39.5626
16201 1 -78.6055 -37.7307 39.5267
16193 1 -11.0066 -39.3141 41.5297
16185 1 -23.5848 -39.309 41.393
16177 1 -36.1608 -39.3053 41.289
97 1 -3.14422 -75.4613 43.2123
16169 1 -48.7363 -39.3035 41.2143
16161 1 -61.3123 -39.3028 41.1601
16153 1 -73.8892 -39.3028 41.1195
16145 1 -9.43426 -44.0296 39.9878
16137 1 -22.012 -44.0249 39.8594
16129 1 -34.5882 -44.0214 39.7562
16121 1 -47.1637 -44.0194 39.6785
105 1 -40.8749 -72.3171 42.9756
16113 1 -59.7402 -44.0191 39.6206
16105 1 -72.3171 -44.0191 39.5764
16097 1 -7.86177 -45.6013 41.5798
16089 1 -20.4397 -45.5972 41.4527
16081 1 -33.016 -45.5936 41.3481
16073 1 -45.5916 -45.5916 41.2679
16065 1 -58.1681 -45.5912 41.2075
113 1 -28.298 -72.3171 43.0464
16057 1 -70.745 -45.5912 41.1613
16049 1 -9.43374 -50.3149 39.9992
16041 1 -22.0112 -50.3117 39.8843
16033 1 -34.5874 -50.3089 39.788
16025 1 -47.1633 -50.3075 39.712
16017 1 -59.7402 -50.3075 39.653
16009 1 -1.57214 -51.887 41.6488
121 1 -15.7211 -72.3171 43.126
16001 1 -14.1503 -51.8852 41.5302
15993 1 -26.7272 -51.8822 41.424
15985 1 -39.3031 -51.8801 41.3367
15977 1 -51.8796 -51.8796 41.2679
15969 1 -64.4565 -51.8796 41.214
15961 1 -6.28888 -56.6006 40.0354
15953 1 -18.8662 -56.5988 39.9291
129 1 -3.14422 -72.3171 43.2114
15945 1 -31.4425 -56.5966 39.8353
15937 1 -44.0191 -56.596 39.7581
15929 1 -56.596 -56.596 39.6958
15921 1 -1.57212 -58.1722 41.6491
15913 1 -14.1497 -58.1711 41.5429
15905 1 -26.7262 -58.1689 41.4458
15897 1 -39.3028 -58.1681 41.3636
137 1 -45.5912 -67.6008 0.48915
15889 1 -51.8796 -58.1681 41.2965
15881 1 -64.4565 -58.1681 41.2423
15873 1 -12.5772 -62.8857 39.9906
15865 1 -25.1538 -62.8844 39.8985
15857 1 -37.7307 -62.8844 39.8184
15849 1 -50.3075 -62.8844 39.7512
15841 1 -1.57199 -64.4577 41.6492
145 1 -33.0143 -67.6008 0.55874
15833 1 -14.1492 -64.4572 41.5531
15825 1 -26.7259 -64.4565 41.4643
15817 1 -39.3028 -64.4565 41.387
15809 1 -51.8796 -64.4565 41.3218
15801 1 -6.28844 -69.1729 40.0435
15793 1 -18.8653 -69.1729 39.9557
15785 1 -31.4422 -69.1729 39.8754
153 1 -20.4374 -67.6008 0.63919
15777 1 -44.0191 -69.1729 39.8053
15769 1 -1.57211 -70.745 41.6499
15761 1 -14.149 -70.745 41.5622
15753 1 -26.7259 -70.745 41.4802
15745 1 -39.3028 -70.745 41.4072
15737 1 -1.57211 -73.8892 41.6504
15729 1 -14.149 -73.8892 41.5663
161 1 -7.86055 -67.6008 0.72819
15721 1 -26.7259 -73.8892 41.4873
15713 1 -39.3028 -73.8892 41.4163
15705 1 -6.28844 -78.6055 40.0489
15697 1 -18.8653 -78.6055 39.971
15689 1 -31.4422 -78.6055 39.8985
15681 1 -3.14422 -81.7497 40.0697
15673 1 -15.7211 -81.7497 39.9938
169 1 -53.4518 -66.0286 42.8925
15665 1 -28.298 -81.7497 39.9221
15657 1 -6.28844 -84.894 40.0519
15649 1 -18.8653 -84.894 39.9795
15641 1 -11.0048 -86.4661 41.5977
15633 1 -11.0769 -1.57681 37.7709
15625 1 -23.6188 -1.57307 37.7499
15617 1 -36.1783 -1.57238 37.7448
177 1 -40.8749 -66.0286 42.9557
15609 1 -48.7445 -1.57215 37.743
15601 1 -61.3149 -1.57209 37.7424
15593 1 -73.8892 -1.57211 37.7413
15585 1 -86.4661 -1.57211 37.7397
15577 1 -12.6219 -6.30263 36.3748
15569 1 -25.1844 -6.29355 36.2694
15561 1 -37.7476 -6.29053 36.2345
185 1 -28.298 -66.0286 43.0305
15553 1 -50.3154 -6.28914 36.2175
15545 1 -62.886 -6.28862 36.2077
15537 1 -75.4613 -6.28844 36.2001
15529 1 -1.57597 -7.88219 38.4583
15521 1 -14.1858 -7.8738 37.972
15513 1 -26.7526 -7.86612 37.8635
15505 1 -39.3176 -7.86282 37.8233
193 1 -15.7211 -66.0286 43.1161
15497 1 -51.8865 -7.86135 37.803
15489 1 -64.4574 -7.86069 37.791
15481 1 -77.0334 -7.86055 37.7815
15473 1 -3.14862 -12.5979 36.8444
15465 1 -15.7418 -12.5893 36.4917
15457 1 -28.3171 -12.5836 36.3604
15449 1 -40.8862 -12.5796 36.303
201 1 -3.14422 -66.0286 43.2093
15441 1 -53.457 -12.578 36.2718
15433 1 -66.0286 -12.5769 36.2527
15425 1 -78.6055 -12.5769 36.2379
15417 1 -4.72177 -14.1688 38.3732
15409 1 -17.3109 -14.1605 38.0701
15401 1 -29.8865 -14.1554 37.9456
15393 1 -42.4565 -14.1514 37.8874
209 1 -51.8796 -61.3123 0.43464
15385 1 -55.0282 -14.15 37.8547
15377 1 -67.6008 -14.149 37.8339
15369 1 -80.1776 -14.149 37.818
15361 1 -6.29216 -18.8837 36.7971
15353 1 -18.8758 -18.8758 36.5512
15345 1 -31.4531 -18.8714 36.4249
15337 1 -44.0261 -18.8678 36.358
217 1 -39.3028 -61.3123 0.50082
15329 1 -56.5988 -18.8662 36.3183
15321 1 -69.1729 -18.8653 36.2918
15313 1 -81.7497 -18.8653 36.272
15305 1 -9.43672 -22.0253 36.7516
15297 1 -22.0177 -22.0185 36.5514
15289 1 -34.5944 -22.0143 36.4392
15281 1 -47.1683 -22.0116 36.3748
225 1 -26.7259 -61.3123 0.58039
15273 1 -59.7414 -22.01 36.3346
15265 1 -72.3171 -22.0095 36.3064
15257 1 -84.894 -22.0095 36.2855
15249 1 -12.5808 -25.1672 36.7195
15241 1 -25.1602 -25.1613 36.5514
15233 1 -37.7365 -25.1571 36.4507
15225 1 -50.3108 -25.1553 36.3891
233 1 -14.1494 -61.3141 0.673338
15217 1 -62.8844 -25.1538 36.349
15209 1 -75.4613 -25.1538 36.3196
15201 1 -4.71758 -26.7432 38.4404
15193 1 -17.2977 -26.7365 38.2333
15185 1 -29.8759 -26.7316 38.095
15177 1 -42.4515 -26.7284 38.0101
15169 1 -55.0256 -26.7267 37.9561
241 1 -1.57209 -61.3149 0.774272
15161 1 -67.6008 -26.7259 37.919
15153 1 -80.1776 -26.7259 37.8917
15145 1 -9.43471 -31.4563 36.8063
15137 1 -22.0134 -31.4502 36.6415
15129 1 -34.5906 -31.4458 36.5273
15121 1 -47.1658 -31.4438 36.4519
15113 1 -59.7402 -31.4422 36.401
249 1 -53.4518 -59.7402 42.8678
15105 1 -72.3171 -31.4422 36.3638
15097 1 -3.14464 -34.6014 36.9073
15089 1 -15.7239 -34.5969 36.736
15081 1 -28.3018 -34.5915 36.6026
15073 1 -40.8776 -34.5886 36.5094
15065 1 -53.4526 -34.5871 36.4456
15057 1 -66.0286 -34.5864 36.4
257 1 -40.8749 -59.7402 42.9328
15049 1 -78.6055 -34.5864 36.366
15041 1 -11.0067 -36.1707 38.3749
15033 1 -23.585 -36.1653 38.23
15025 1 -36.1614 -36.1614 38.1237
15017 1 -48.7368 -36.1596 38.0496
15009 1 -61.3123 -36.1585 37.9973
15001 1 -73.8892 -36.1585 37.9584
265 1 -28.298 -59.7402 43.0117
14993 1 -6.28943 -40.8871 36.8739
14985 1 -18.8682 -40.8828 36.7317
14977 1 -31.4447 -40.8783 36.6174
14969 1 -44.0203 -40.876 36.5329
14961 1 -56.596 -40.8749 36.4716
14953 1 -69.1729 -40.8749 36.4256
14945 1 -4.71703 -42.459 38.4667
273 1 -15.7217 -59.7424 43.1053
14937 1 -17.2958 -42.4551 38.3267
14929 1 -29.8724 -42.4506 38.2111
14921 1 -42.4481 -42.4481 38.1237
14913 1 -55.0239 -42.447 38.0595
14905 1 -67.6008 -42.447 38.0112
14897 1 -3.14454 -47.1732 36.9155
14889 1 -15.723 -47.1704 36.7867
281 1 -3.14433 -59.7435 43.2081
14881 1 -28.2998 -47.1665 36.6755
14873 1 -40.8756 -47.1641 36.5874
14865 1 -53.4518 -47.1633 36.5204
14857 1 -66.0286 -47.1633 36.469
14849 1 -4.71687 -48.7443 38.4722
14841 1 -17.295 -48.7414 38.3487
14833 1 -29.8716 -48.7379 38.2426
289 1 -58.1681 -55.0239 0.37913
14825 1 -42.4473 -48.7358 38.1582
14817 1 -55.0239 -48.7354 38.0934
14809 1 -67.6008 -48.7354 38.0433
14801 1 -9.43352 -53.4576 36.8597
14793 1 -22.0108 -53.4549 36.7506
14785 1 -34.5871 -53.4526 36.6576
14777 1 -47.1633 -53.4518 36.5829
297 1 -45.5912 -55.0239 0.43981
14769 1 -59.7402 -53.4518 36.5238
14761 1 -1.57213 -55.0295 38.5048
14753 1 -14.15 -55.0282 38.3927
14745 1 -26.7267 -55.0256 38.2913
14737 1 -39.3028 -55.0239 38.2064
14729 1 -51.8796 -55.0239 38.1384
14721 1 -64.4565 -55.0239 38.0843
305 1 -33.0147 -55.0245 0.515927
14713 1 -9.43315 -59.7431 36.8675
14705 1 -22.01 -59.7414 36.7685
14697 1 -34.5864 -59.7402 36.682
14689 1 -47.1633 -59.7402 36.6102
14681 1 -59.7402 -59.7402 36.5516
14673 1 -7.86088 -61.3146 38.4539
14665 1 -20.4377 -61.3132 38.3561
313 1 -20.4385 -55.0269 0.609482
14657 1 -33.0143 -61.3123 38.2696
14649 1 -45.5912 -61.3123 38.1968
14641 1 -58.1681 -61.3123 38.1369
14633 1 -9.43266 -66.0286 36.8737
14625 1 -22.0095 -66.0286 36.7837
14617 1 -34.5864 -66.0286 36.7032
14609 1 -47.1633 -66.0286 36.6343
321 1 -7.86119 -55.0291 0.717291
14601 1 -1.57211 -67.6008 38.5052
14593 1 -14.149 -67.6008 38.4136
14585 1 -26.7259 -67.6008 38.3284
14577 1 -39.3028 -67.6008 38.2532
14569 1 -51.8796 -67.6008 38.1892
14561 1 -9.43266 -72.3171 36.8798
14553 1 -22.0095 -72.3171 36.7968
329 1 -66.0286 -53.4518 42.7875
14545 1 -34.5864 -72.3171 36.7214
14537 1 -47.1633 -72.3171 36.6555
14529 1 -9.43266 -75.4613 36.8825
14521 1 -22.0095 -75.4613 36.8027
14513 1 -34.5864 -75.4613 36.7296
14505 1 -1.57211 -77.0334 38.5066
14497 1 -14.149 -77.0334 38.4259
337 1 -53.4518 -53.4518 42.84
14489 1 -26.7259 -77.0334 38.3497
14481 1 -39.3028 -77.0334 38.2807
14473 1 -11.0048 -80.1776 38.4485
14465 1 -23.5817 -80.1776 38.3736
14457 1 -1.57211 -83.3219 38.5074
14449 1 -14.149 -83.3219 38.4326
14441 1 -1.57211 -86.4661 38.5077
345 1 -40.8749 -53.4518 42.9064
14433 1 -6.37126 -3.16407 33.2095
14425 1 -18.9105 -3.14832 33.0796
14417 1 -31.4672 -3.14571 33.0548
14409 1 -44.0308 -3.14462 33.045
14401 1 -56.6008 -3.14438 33.0401
14393 1 -69.1729 -3.14422 33.0369
14385 1 -81.7497 -3.14422 33.0335
353 1 -28.299 -53.4536 42.9902
14377 1 -7.91905 -4.73594 34.8361
14369 1 -20.4771 -4.72183 34.6847
14361 1 -33.0368 -4.71852 34.6488
14353 1 -45.6018 -4.717 34.6335
14345 1 -58.1721 -4.71659 34.6253
14337 1 -70.745 -4.71633 34.6196
14329 1 -83.3219 -4.71633 34.6146
361 1 -15.7223 -53.4564 43.092
14321 1 -9.45725 -9.449 33.4064
14313 1 -22.0377 -9.441 33.2063
14305 1 -34.6043 -9.43651 33.1404
14297 1 -47.1722 -9.43398 33.1092
14289 1 -59.7431 -9.43315 33.0914
14281 1 -72.3171 -9.43266 33.0791
14273 1 -84.894 -9.43266 33.0696
369 1 -3.14443 -53.4582 43.2063
14265 1 -11.0258 -11.02 34.9787
14257 1 -23.6057 -11.013 34.7958
14249 1 -36.1741 -11.0086 34.7279
14241 1 -48.7432 -11.0061 34.6942
14233 1 -61.3144 -11.0052 34.6744
14225 1 -73.8892 -11.0048 34.6603
14217 1 -86.4661 -11.0048 34.6497
377 1 -61.3123 -48.7354 0.33607
14209 1 -12.5884 -15.7349 33.4661
14201 1 -25.1694 -15.7293 33.2885
14193 1 -37.7419 -15.725 33.2071
14185 1 -50.3134 -15.7227 33.1633
14177 1 -62.8854 -15.7213 33.1365
14169 1 -75.4613 -15.7211 33.117
14161 1 -1.57256 -17.3143 35.347
385 1 -48.7354 -48.7354 0.39303
14153 1 -14.1593 -17.3061 35.0321
14145 1 -26.7392 -17.3009 34.8692
14137 1 -39.3122 -17.2966 34.7897
14129 1 -51.8845 -17.2946 34.7452
14121 1 -64.4565 -17.2932 34.7175
14113 1 -77.0334 -17.2932 34.6968
14105 1 -4.7185 -20.4566 35.2734
393 1 -36.1596 -48.7368 0.467079
14097 1 -17.3015 -20.4485 35.0229
14089 1 -29.8799 -20.4439 34.8834
14081 1 -42.4538 -20.4401 34.808
14073 1 -55.0269 -20.4385 34.763
14065 1 -67.6008 -20.4374 34.7333
14057 1 -80.1776 -20.4374 34.7112
14049 1 -7.86346 -23.5983 35.2221
401 1 -23.5835 -48.7395 0.562388
14041 1 -20.4441 -23.5911 35.0165
14033 1 -33.0216 -23.5867 34.8945
14025 1 -45.5961 -23.5839 34.8231
14017 1 -58.1696 -23.5822 34.7785
14009 1 -70.745 -23.5817 34.7474
14001 1 -83.3219 -23.5817 34.7244
13993 1 -12.5801 -28.311 33.5978
409 1 -11.0061 -48.7432 0.678313
13985 1 -25.1587 -28.3052 33.4376
13977 1 -37.7354 -28.3012 33.335
13969 1 -50.3101 -28.2994 33.2696
13961 1 -62.8844 -28.298 33.2259
13953 1 -75.4613 -28.298 33.1938
13945 1 -4.71734 -29.8864 35.3037
13937 1 -17.2969 -29.8804 35.1142
417 1 -72.3171 -47.1633 42.7362
13929 1 -29.8748 -29.8753 34.9794
13921 1 -42.4506 -29.8724 34.8921
13913 1 -55.0251 -29.8708 34.8348
13905 1 -67.6008 -29.8701 34.7946
13897 1 -80.1776 -29.8701 34.7648
13889 1 -11.007 -33.0273 35.2182
13881 1 -23.5853 -33.0215 35.0643
425 1 -59.7402 -47.1633 42.7814
13873 1 -36.1621 -33.0175 34.9563
13865 1 -48.7373 -33.0156 34.8837
13857 1 -61.3123 -33.0143 34.8335
13849 1 -73.8892 -33.0143 34.7966
13841 1 -6.28947 -37.744 33.7243
13833 1 -18.8683 -37.7392 33.5721
13825 1 -31.4452 -37.7345 33.4535
433 1 -47.1633 -47.1633 42.84
13817 1 -44.0208 -37.7321 33.3686
13809 1 -56.596 -37.7307 33.3085
13801 1 -69.1729 -37.7307 33.2642
13793 1 -1.57215 -39.3162 35.359
13785 1 -14.1513 -39.3129 35.2043
13777 1 -26.7289 -39.3078 35.0754
13769 1 -39.3048 -39.3048 34.9795
441 1 -34.5878 -47.1652 42.917
13761 1 -51.8801 -39.3031 34.9107
13753 1 -64.4565 -39.3028 34.8604
13745 1 -77.0334 -39.3028 34.8225
13737 1 -12.5789 -44.0285 33.6653
13729 1 -25.1561 -44.0239 33.5426
13721 1 -37.7321 -44.0208 33.4461
13713 1 -50.3075 -44.0191 33.374
449 1 -22.0116 -47.1683 43.0168
13705 1 -62.8844 -44.0191 33.3199
13697 1 -75.4613 -44.0191 33.2785
13689 1 -11.0064 -45.6004 35.258
13681 1 -23.5839 -45.5961 35.1358
13673 1 -36.16 -45.593 35.0374
13665 1 -48.7354 -45.5912 34.9627
13657 1 -61.3123 -45.5912 34.9063
457 1 -9.43398 -47.1722 43.1381
13649 1 -73.8892 -45.5912 34.863
13641 1 -12.5782 -50.3142 33.6807
13633 1 -25.1553 -50.3108 33.5698
13625 1 -37.7313 -50.3084 33.4787
13617 1 -50.3075 -50.3075 33.4073
13609 1 -62.8844 -50.3075 33.3519
13601 1 -4.71676 -51.8868 35.3301
465 1 -73.8892 -42.447 0.26091
13593 1 -17.2946 -51.8845 35.2137
13585 1 -29.8712 -51.8815 35.1119
13577 1 -42.447 -51.8796 35.0293
13569 1 -55.0239 -51.8796 34.9647
13561 1 -67.6008 -51.8796 34.9139
13553 1 -9.43333 -56.6003 33.7196
13545 1 -22.0104 -56.5982 33.6158
473 1 -61.3123 -42.447 0.30301
13537 1 -34.5864 -56.596 33.5259
13529 1 -47.1633 -56.596 33.4527
13521 1 -59.7402 -56.596 33.3938
13513 1 -4.71659 -58.1721 35.3337
13505 1 -17.2939 -58.1706 35.229
13497 1 -29.8704 -58.1686 35.1353
13489 1 -42.447 -58.1681 35.057
481 1 -48.7358 -42.4473 0.358536
13481 1 -55.0239 -58.1681 34.9933
13473 1 -3.14424 -62.8862 33.7761
13465 1 -15.7213 -62.8854 33.6782
13457 1 -28.298 -62.8844 33.5888
13449 1 -40.8749 -62.8844 33.5119
13441 1 -53.4518 -62.8844 33.4478
13433 1 -4.71639 -64.4575 35.3363
489 1 -36.1604 -42.4492 0.433445
13425 1 -17.2932 -64.4565 35.2413
13417 1 -29.8701 -64.4565 35.1553
13409 1 -42.447 -64.4565 35.081
13401 1 -55.0239 -64.4565 35.0189
13393 1 -9.43266 -69.1729 33.7326
13385 1 -22.0095 -69.1729 33.6462
13377 1 -34.5864 -69.1729 33.5684
497 1 -23.5843 -42.4526 0.534665
13369 1 -47.1633 -69.1729 33.5009
13361 1 -4.71633 -70.745 35.3392
13353 1 -17.2932 -70.745 35.2525
13345 1 -29.8701 -70.745 35.1726
13337 1 -42.447 -70.745 35.102
13329 1 -4.71633 -73.8892 35.3406
13321 1 -17.2932 -73.8892 35.2574
505 1 -11.0066 -42.4574 0.663857
13313 1 -29.8701 -73.8892 35.1802
13305 1 -42.447 -73.8892 35.1115
13297 1 -9.43266 -78.6055 33.7406
13289 1 -22.0095 -78.6055 33.6638
13281 1 -34.5864 -78.6055 33.593
13273 1 -6.28844 -81.7497 33.762
13265 1 -18.8653 -81.7497 33.6869
513 1 -75.4613 -40.8749 42.6954
13257 1 -31.4422 -81.7497 33.6166
13249 1 -9.43266 -84.894 33.745
13241 1 -22.0095 -84.894 33.6734
13233 1 -1.74114 -1.62571 31.8234
13225 1 -14.2088 -1.575 31.4736
13217 1 -26.7579 -1.57284 31.4597
13209 1 -39.3192 -1.57229 31.4557
521 1 -62.8844 -40.8749 42.7354
13201 1 -51.887 -1.57214 31.4543
13193 1 -64.4577 -1.57199 31.454
13185 1 -77.0334 -1.57211 31.4523
13177 1 -3.16071 -6.30903 30.4562
13169 1 -15.7635 -6.29913 30.045
13161 1 -28.3248 -6.29259 29.9693
13153 1 -40.8889 -6.29 29.9407
529 1 -50.308 -40.8752 42.7883
13145 1 -53.458 -6.289 29.9261
13137 1 -66.0286 -6.28844 29.9175
13129 1 -78.6055 -6.28844 29.91
13121 1 -4.7346 -7.87963 31.9747
13113 1 -17.3288 -7.87103 31.6428
13105 1 -29.8937 -7.86512 31.5618
13097 1 -42.4592 -7.8622 31.5287
537 1 -37.7326 -40.877 42.8603
13089 1 -55.0291 -7.86119 31.511
13081 1 -67.6008 -7.86055 31.5001
13073 1 -80.1776 -7.86055 31.491
13065 1 -6.29815 -12.5951 30.4374
13057 1 -18.887 -12.5876 30.1577
13049 1 -31.4595 -12.5825 30.0536
13041 1 -44.0285 -12.5789 30.0052
545 1 -25.1566 -40.8802 42.9591
13033 1 -56.5999 -12.5777 29.9778
13025 1 -69.1729 -12.5769 29.96
13017 1 -81.7497 -12.5769 29.9464
13009 1 -7.86988 -14.166 31.9848
13001 1 -20.4559 -14.159 31.7397
12993 1 -33.0291 -14.1543 31.6388
12985 1 -45.5994 -14.151 31.5891
553 1 -12.579 -40.8853 43.0884
12977 1 -58.1711 -14.1497 31.5603
12969 1 -70.745 -14.149 31.5409
12961 1 -83.3219 -14.149 31.5263
12953 1 -9.43839 -18.8813 30.4336
12945 1 -22.0209 -18.8746 30.2226
12937 1 -34.5966 -18.8703 30.1159
12929 1 -47.1693 -18.8674 30.0578
561 1 -80.1776 -36.1585 0.21198
12921 1 -59.7419 -18.8658 30.0224
12913 1 -72.3171 -18.8653 29.9977
12905 1 -84.894 -18.8653 29.9795
12897 1 -12.5822 -22.0232 30.403
12889 1 -25.1623 -22.0174 30.2283
12881 1 -37.7381 -22.0133 30.1314
12873 1 -50.3117 -22.0112 30.0746
569 1 -67.6008 -36.1585 0.24576
12865 1 -62.8844 -22.0095 30.0385
12857 1 -75.4613 -22.0095 30.0121
12849 1 -3.145 -25.1721 30.6064
12841 1 -15.7259 -25.1654 30.3813
12833 1 -28.3045 -25.1602 30.2327
12825 1 -40.8802 -25.1566 30.144
12817 1 -53.4542 -25.1549 30.0891
577 1 -55.0243 -36.1588 0.290785
12809 1 -66.0286 -25.1538 30.0522
12801 1 -78.6055 -25.1538 30.025
12793 1 -7.86283 -26.7418 32.0947
12785 1 -20.4425 -26.7351 31.9039
12777 1 -33.02 -26.7305 31.7814
12769 1 -45.5951 -26.728 31.7059
12761 1 -58.1689 -26.7262 31.6573
585 1 -42.4492 -36.1604 0.352614
12753 1 -70.745 -26.7259 31.6229
12745 1 -83.3219 -26.7259 31.5975
12737 1 -12.5795 -31.4547 30.4721
12729 1 -25.1579 -31.449 30.32
12721 1 -37.7345 -31.4452 30.217
12713 1 -50.3094 -31.4434 30.1488
12705 1 -62.8844 -31.4422 30.1021
593 1 -29.8735 -36.163 0.441487
12697 1 -75.4613 -31.4422 30.0676
12689 1 -6.28957 -34.6008 30.5737
12681 1 -18.8684 -34.5955 30.4101
12673 1 -31.4458 -34.5906 30.2874
12665 1 -44.0214 -34.5882 30.2027
12657 1 -56.596 -34.5864 30.1446
12649 1 -69.1729 -34.5864 30.1021
601 1 -17.296 -36.168 0.567044
12641 1 -1.57215 -36.1731 32.2141
12633 1 -14.1514 -36.1694 32.0468
12625 1 -26.7295 -36.164 31.9114
12617 1 -39.3053 -36.1608 31.8141
12609 1 -51.8805 -36.1592 31.7465
12601 1 -64.4565 -36.1585 31.698
12593 1 -77.0334 -36.1585 31.6618
609 1 -4.71708 -36.1727 0.728441
12585 1 -9.43422 -40.8863 30.548
12577 1 -22.0125 -40.8815 30.4118
12569 1 -34.5886 -40.8776 30.3053
12561 1 -47.1641 -40.8756 30.2273
12553 1 -59.7402 -40.8749 30.1703
12545 1 -72.3171 -40.8749 30.1275
12537 1 -7.86183 -42.4583 32.1418
617 1 -72.3171 -34.5864 42.6702
12529 1 -20.4401 -42.4538 32.0067
12521 1 -33.0164 -42.4498 31.8983
12513 1 -45.592 -42.4477 31.8173
12505 1 -58.1681 -42.447 31.7576
12497 1 -70.745 -42.447 31.7126
12489 1 -6.2893 -47.1728 30.5939
12481 1 -18.8674 -47.1693 30.4684
625 1 -59.7402 -34.5864 42.7096
12473 1 -31.4438 -47.1658 30.3628
12465 1 -44.0194 -47.1637 30.2804
12457 1 -56.596 -47.1633 30.2177
12449 1 -69.1729 -47.1633 30.1695
12441 1 -7.86155 -48.7438 32.1518
12433 1 -20.4393 -48.7405 32.0319
12425 1 -33.0156 -48.7373 31.9311
633 1 -47.1652 -34.5878 42.763
12417 1 -45.5912 -48.7354 31.8519
12409 1 -58.1681 -48.7354 31.7912
12401 1 -70.745 -48.7354 31.744
12393 1 -12.578 -53.457 30.5429
12385 1 -25.1549 -53.4542 30.4372
12377 1 -37.731 -53.4522 30.3487
12369 1 -50.3075 -53.4518 30.2783
641 1 -34.5898 -34.5898 42.84
12361 1 -62.8844 -53.4518 30.2226
12353 1 -4.71668 -55.0294 32.1878
12345 1 -17.2943 -55.0275 32.0776
12337 1 -29.8708 -55.0251 31.9799
12329 1 -42.447 -55.0239 31.8995
12321 1 -55.0239 -55.0239 31.8352
12313 1 -67.6008 -55.0239 31.7841
649 1 -22.0129 -34.5941 42.9522
12305 1 -12.5774 -59.7428 30.5534
12297 1 -25.154 -59.7409 30.4571
12289 1 -37.7307 -59.7402 30.3743
12281 1 -50.3075 -59.7402 30.3059
12273 1 -62.8844 -59.7402 30.2503
12265 1 -11.0052 -61.3144 32.1403
12257 1 -23.5819 -61.3129 32.0448
657 1 -9.43443 -34.5997 43.1066
12249 1 -36.1585 -61.3123 31.9616
12241 1 -48.7354 -61.3123 31.8922
12233 1 -61.3123 -61.3123 31.8352
12225 1 -12.5769 -66.0286 30.562
12217 1 -25.1538 -66.0286 30.474
12209 1 -37.7307 -66.0286 30.3964
12201 1 -50.3075 -66.0286 30.3303
665 1 -78.6055 -31.4422 42.6374
12193 1 -4.71633 -67.6008 32.1935
12185 1 -17.2932 -67.6008 32.103
12177 1 -29.8701 -67.6008 32.0201
12169 1 -42.447 -67.6008 31.9477
12161 1 -55.0239 -67.6008 31.8864
12153 1 -12.5769 -72.3171 30.57
12145 1 -25.1538 -72.3171 30.4887
673 1 -66.0286 -31.4422 42.6693
12137 1 -37.7307 -72.3171 30.4155
12129 1 -51.8796 -70.745 31.9116
12121 1 -12.5769 -75.4613 30.5736
12113 1 -25.1538 -75.4613 30.4952
12105 1 -37.7307 -75.4613 30.4242
12097 1 -4.71633 -77.0334 32.1977
12089 1 -17.2932 -77.0334 32.1178
681 1 -53.453 -31.443 42.7125
12081 1 -29.8701 -77.0334 32.0432
12073 1 -1.57211 -80.1776 32.2185
12065 1 -14.149 -80.1776 32.1409
12057 1 -26.7259 -80.1776 32.0673
12049 1 -4.71633 -83.3219 32.2
12041 1 -17.2932 -83.3219 32.1259
12033 1 -7.86055 -86.4661 32.1829
689 1 -40.8783 -31.4447 42.7741
12025 1 -9.50507 -3.15865 26.8587
12017 1 -22.0488 -3.14737 26.7822
12009 1 -34.6077 -3.14539 26.7631
12001 1 -47.1732 -3.14454 26.755
11993 1 -59.7435 -3.14433 26.7508
11985 1 -72.3171 -3.14422 26.7476
11977 1 -84.894 -3.14422 26.7444
697 1 -28.3023 -31.4478 42.867
11969 1 -11.0613 -4.73136 28.4802
11961 1 -23.6165 -4.72067 28.3836
11953 1 -36.1776 -4.71806 28.3555
11945 1 -48.7443 -4.71687 28.3425
11937 1 -61.3147 -4.71649 28.3354
11929 1 -73.8892 -4.71633 28.3298
11921 1 -86.4661 -4.71633 28.3252
705 1 -15.7243 -31.4531 43.0061
11913 1 -12.6062 -9.44743 27.041
11905 1 -25.1797 -9.43963 26.8955
11897 1 -37.746 -9.4357 26.8422
11889 1 -50.3149 -9.43374 26.8155
11881 1 -62.8859 -9.43295 26.7997
11873 1 -75.4613 -9.43266 26.7881
11865 1 -1.57402 -11.0262 29.0428
713 1 -3.14471 -31.4583 43.1925
11857 1 -14.1735 -11.0183 28.6233
11849 1 -26.7481 -11.0117 28.4849
11841 1 -39.316 -11.0077 28.429
11833 1 -51.8859 -11.0059 28.3998
11825 1 -64.4573 -11.005 28.3823
11817 1 -77.0334 -11.0048 28.3689
11809 1 -3.14667 -15.7418 27.4325
721 1 -73.8892 -26.7259 0.17364
11801 1 -15.7349 -15.7333 27.1185
11793 1 -28.313 -15.7282 26.974
11785 1 -40.8846 -15.7241 26.9054
11777 1 -53.4564 -15.7223 26.8669
11769 1 -66.0286 -15.7211 26.8428
11761 1 -78.6055 -15.7211 26.8246
11753 1 -4.7196 -17.3129 28.9669
729 1 -61.3123 -26.7259 0.20567
11745 1 -17.3052 -17.3045 28.6907
11737 1 -29.8829 -17.2998 28.5558
11729 1 -42.4551 -17.2958 28.4879
11721 1 -55.0275 -17.2943 28.4487
11713 1 -67.6008 -17.2932 28.4233
11705 1 -80.1776 -17.2932 28.4043
11697 1 -7.8645 -20.4544 28.9116
737 1 -48.7387 -26.7276 0.249567
11689 1 -20.4467 -20.4471 28.6908
11681 1 -33.0237 -20.4429 28.5719
11673 1 -45.5972 -20.4397 28.5062
11665 1 -58.1701 -20.4381 28.4661
11657 1 -70.745 -20.4374 28.4387
11649 1 -83.3219 -20.4374 28.4183
11641 1 -11.0088 -23.5962 28.8736
745 1 -36.164 -26.7295 0.316883
11633 1 -23.5888 -23.5899 28.6908
11625 1 -36.1654 -23.5857 28.5847
11617 1 -48.7395 -23.5835 28.5217
11609 1 -61.3129 -23.5819 28.4815
11601 1 -73.8892 -23.5817 28.4525
11593 1 -3.14483 -28.3152 27.4673
11585 1 -15.7249 -28.3093 27.2632
753 1 -23.5871 -26.7338 0.425212
11577 1 -28.3031 -28.304 27.1188
11569 1 -40.8792 -28.3007 27.0274
11561 1 -53.4536 -28.299 26.9687
11553 1 -66.0286 -28.298 26.9285
11545 1 -78.6055 -28.298 26.8988
11537 1 -7.86241 -29.8852 28.9639
11529 1 -20.4415 -29.879 28.7867
761 1 -11.0079 -26.74 0.598428
11521 1 -33.019 -29.8742 28.6654
11513 1 -45.5943 -29.872 28.5871
11505 1 -58.1686 -29.8704 28.5352
11497 1 -70.745 -29.8701 28.4979
11489 1 -1.57216 -33.03 29.0691
11481 1 -14.1517 -33.0258 28.887
11473 1 -26.7298 -33.0203 28.7448
769 1 -81.7497 -25.1538 42.5963
11465 1 -39.306 -33.0169 28.647
11457 1 -51.881 -33.0152 28.581
11449 1 -64.4565 -33.0143 28.5348
11441 1 -77.0334 -33.0143 28.5006
11433 1 -9.4343 -37.743 27.3954
11425 1 -22.0127 -37.7378 27.2506
11417 1 -34.5892 -37.7337 27.141
777 1 -69.1729 -25.1538 42.6215
11409 1 -47.1646 -37.7317 27.0632
11401 1 -59.7402 -37.7307 27.0078
11393 1 -72.3171 -37.7307 26.9665
11385 1 -4.71702 -39.3159 29.0306
11377 1 -17.296 -39.3116 28.8806
11369 1 -29.8729 -39.3068 28.76
11361 1 -42.4486 -39.3043 28.6716
785 1 -56.5976 -25.1545 42.6555
11353 1 -55.0239 -39.3028 28.6084
11345 1 -67.6008 -39.3028 28.5615
11337 1 -3.14462 -44.0308 27.4813
11329 1 -15.7234 -44.0274 27.344
11321 1 -28.3002 -44.0229 27.2275
11313 1 -40.876 -44.0203 27.1376
11305 1 -53.4518 -44.0191 27.0706
793 1 -44.0239 -25.1561 42.7048
11297 1 -66.0286 -44.0191 27.0201
11289 1 -1.57216 -45.6021 29.0714
11281 1 -14.151 -45.5994 28.9371
11273 1 -26.728 -45.5951 28.8204
11265 1 -39.3038 -45.5925 28.7283
11257 1 -51.8796 -45.5912 28.6588
11249 1 -64.4565 -45.5912 28.606
801 1 -31.4487 -25.1591 42.783
11241 1 -3.14448 -50.3157 27.4841
11233 1 -15.7227 -50.3134 27.363
11225 1 -28.2994 -50.3101 27.2566
11217 1 -40.8752 -50.308 27.1706
11209 1 -53.4518 -50.3075 27.1038
11201 1 -66.0286 -50.3075 27.0517
11193 1 -7.86135 -51.8865 29.0117
809 1 -18.8708 -25.1638 42.9138
11185 1 -20.4389 -51.8837 28.8981
11177 1 -33.0152 -51.881 28.801
11169 1 -45.5912 -51.8796 28.7233
11161 1 -58.1681 -51.8796 28.6624
11153 1 -70.745 -51.8796 28.6146
11145 1 -12.5777 -56.5999 27.4043
11137 1 -25.1545 -56.5976 27.3034
817 1 -6.29045 -25.1709 43.1215
11129 1 -37.7307 -56.596 27.2177
11121 1 -50.3075 -56.596 27.1483
11113 1 -62.8844 -56.596 27.0926
11105 1 -7.86104 -58.1719 29.0184
11097 1 -20.4381 -58.1701 28.9159
11089 1 -33.0143 -58.1681 28.8257
11081 1 -45.5912 -58.1681 28.7514
825 1 -78.6055 -22.0095 42.5836
11073 1 -58.1681 -58.1681 28.691
11065 1 -6.28862 -62.886 27.4628
11057 1 -18.8655 -62.8851 27.3664
11049 1 -31.4422 -62.8844 27.28
11041 1 -44.0191 -62.8844 27.2063
11033 1 -56.596 -62.8844 27.1452
11025 1 -7.86069 -64.4574 29.0237
833 1 -66.0286 -22.0095 42.6079
11017 1 -20.4374 -64.4565 28.9304
11009 1 -33.0143 -64.4565 28.8472
11001 1 -45.5912 -64.4565 28.776
10993 1 -58.1681 -64.4565 28.7167
10985 1 -12.5769 -69.1729 27.422
10977 1 -25.1538 -69.1729 27.3375
10969 1 -37.7307 -69.1729 27.2621
841 1 -53.4549 -22.0108 42.641
10961 1 -50.3075 -69.1729 27.1973
10953 1 -7.86055 -70.745 29.0287
10945 1 -20.4374 -70.745 28.9434
10937 1 -33.0143 -70.745 28.8656
10929 1 -45.5912 -70.745 28.7976
10921 1 -7.86055 -73.8892 29.0311
10913 1 -20.4374 -73.8892 28.949
849 1 -40.8815 -22.0125 42.6914
10905 1 -33.0143 -73.8892 28.8738
10897 1 -45.5912 -73.8892 28.8074
10889 1 -12.5769 -78.6055 27.4326
10881 1 -25.1538 -78.6055 27.357
10873 1 -37.7307 -78.6055 27.288
10865 1 -9.43266 -81.7497 27.4545
10857 1 -22.0095 -81.7497 27.3804
857 1 -28.3066 -22.0164 42.7755
10849 1 -36.1585 -80.1776 28.8721
10841 1 -12.5769 -84.894 27.4384
10833 1 -26.7259 -83.3219 28.9288
10825 1 -4.84271 -1.58259 25.2451
10817 1 -17.3443 -1.57408 25.1795
10809 1 -29.8976 -1.57264 25.1698
10801 1 -42.4604 -1.57221 25.1668
865 1 -15.7276 -22.0213 42.9265
10793 1 -55.0295 -1.57213 25.1657
10785 1 -67.6008 -1.57211 25.1654
10777 1 -80.1776 -1.57211 25.1635
10769 1 -6.32467 -6.30727 23.9733
10761 1 -18.9043 -6.29658 23.728
10753 1 -31.4656 -6.2918 23.6715
10745 1 -44.0304 -6.28948 23.6478
873 1 -3.14527 -22.0289 43.1766
10737 1 -56.6006 -6.28888 23.6351
10729 1 -69.1729 -6.28844 23.627
10721 1 -81.7497 -6.28844 23.62
10713 1 -7.89002 -7.87814 25.5456
10705 1 -20.4706 -7.86892 25.3251
10697 1 -33.0349 -7.86426 25.2627
10689 1 -45.6013 -7.86177 25.2349
881 1 -75.4613 -18.8653 42.5695
10681 1 -58.1719 -7.86104 25.2194
10673 1 -70.745 -7.86055 25.2091
10665 1 -83.3219 -7.86055 25.2008
10657 1 -9.44707 -12.5927 24.051
10649 1 -22.0311 -12.5861 23.8339
10641 1 -34.6018 -12.5815 23.7499
10633 1 -47.1714 -12.5786 23.7085
889 1 -62.8851 -18.8655 42.5926
10625 1 -59.7428 -12.5774 23.6844
10617 1 -72.3171 -12.5769 23.6678