ITEM: TIMESTEP
199
ITEM: NUMBER OF ATOMS
68951
ITEM: BOX BOUNDS pp pp pp
-3.5215275199999996e+02 3.5215275199999996e+02
-3.5215275199999996e+02 3.5215275199999996e+02
0.0000000000000000e+00 4.4019093999999996e+01
ITEM: ATOMS id type x y z
1 1 -14.149 -86.4661 0.70493
16841 1 -3.19503 -3.14323 39.7702
16833 1 -15.7831 -3.15271 39.3918
16825 1 -28.3308 -3.14685 39.3508
16817 1 -40.8902 -3.145 39.3358
16809 1 -53.4582 -3.14443 39.3295
16801 1 -66.0286 -3.14422 39.3265
16793 1 -78.6055 -3.14422 39.3227
9 1 -20.4374 -83.3219 0.66573
16785 1 -4.75662 -4.72259 41.3116
16777 1 -17.3459 -4.72621 41.0004
16769 1 -29.8993 -4.71991 40.9465
16761 1 -42.4603 -4.71736 40.9251
16753 1 -55.0294 -4.71668 40.9154
16745 1 -67.6008 -4.71633 40.9097
16737 1 -80.1776 -4.71633 40.9042
17 1 -7.86055 -83.3219 0.73904
16729 1 -6.30354 -9.44227 39.8267
16721 1 -18.8989 -9.44483 39.5327
16713 1 -31.4646 -9.43845 39.4434
16705 1 -44.0296 -9.43426 39.4038
16697 1 -56.6003 -9.43333 39.3835
16689 1 -69.1729 -9.43266 39.3706
16681 1 -81.7497 -9.43266 39.3602
25 1 -29.8701 -80.1776 0.60763
16673 1 -7.8749 -11.0164 41.3755
16665 1 -20.4655 -11.0163 41.1206
16657 1 -33.0335 -11.0105 41.0311
16649 1 -45.6004 -11.0064 40.9894
16641 1 -58.1715 -11.0054 40.967
16633 1 -70.745 -11.0048 40.9521
16625 1 -83.3219 -11.0048 40.9406
33 1 -17.2932 -80.1776 0.6798
16617 1 -9.43993 -15.7333 39.8386
16609 1 -22.0261 -15.7318 39.6146
16601 1 -34.5996 -15.7268 39.5127
16593 1 -47.1704 -15.723 39.4606
16585 1 -59.7424 -15.7217 39.4306
16577 1 -72.3171 -15.7211 39.4099
16569 1 -84.894 -15.7211 39.3944
41 1 -4.71633 -80.1776 0.75671
16561 1 -11.0116 -17.3055 41.3944
16553 1 -23.5956 -17.3032 41.1927
16545 1 -36.1696 -17.2982 41.0948
16537 1 -48.7414 -17.295 41.0428
16529 1 -61.3137 -17.2936 41.0118
16521 1 -73.8892 -17.2932 40.9899
16513 1 -1.57195 -20.4506 41.6476
49 1 -33.0143 -77.0334 0.58347
16505 1 -14.1549 -20.449 41.37
16497 1 -26.7359 -20.4458 41.2022
16489 1 -39.3104 -20.4406 41.1116
16481 1 -51.8837 -20.4389 41.0608
16473 1 -64.4565 -20.4374 41.0285
16465 1 -77.0334 -20.4374 41.0046
16457 1 -4.717 -23.5953 41.5817
57 1 -20.4374 -77.0334 0.65633
16449 1 -17.2982 -23.5922 41.3529
16441 1 -29.8775 -23.5884 41.2093
16433 1 -42.4526 -23.5843 41.1263
16425 1 -55.0262 -23.5826 41.0764
16417 1 -67.6008 -23.5817 41.0428
16409 1 -80.1776 -23.5817 41.018
16401 1 -9.43401 -28.3106 39.9408
65 1 -7.86055 -77.0334 0.73523
16393 1 -22.0135 -28.3065 39.7627
16385 1 -34.5915 -28.3018 39.6448
16377 1 -47.1665 -28.2998 39.5719
16369 1 -59.7402 -28.298 39.5241
16361 1 -72.3171 -28.298 39.4894
16353 1 -1.57184 -29.8838 41.649
16345 1 -14.1511 -29.8811 41.4489
73 1 -40.8749 -75.4613 42.9846
16337 1 -26.7301 -29.8768 41.2978
16329 1 -39.3068 -29.8729 41.1989
16321 1 -51.8815 -29.8712 41.1355
16313 1 -64.4565 -29.8701 41.092
16305 1 -77.0334 -29.8701 41.06
16297 1 -7.86135 -33.027 41.5546
16289 1 -20.4402 -33.0228 41.3885
81 1 -28.298 -75.4613 43.0535
16281 1 -33.0182 -33.0182 41.2679
16273 1 -45.5936 -33.016 41.1877
16265 1 -58.1681 -33.0143 41.1332
16257 1 -70.745 -33.0143 41.0934
16249 1 -3.1443 -37.7434 40.0558
16241 1 -15.7233 -37.7402 39.8968
16233 1 -28.3012 -37.7354 39.7682
89 1 -15.7211 -75.4613 43.1303
16225 1 -40.877 -37.7326 39.6755
16217 1 -53.4522 -37.731 39.6102
16209 1 -66.0286 -37.7307 39.5626
16201 1 -78.6055 -37.7307 39.5267
16193 1 -11.0063 -39.3136 41.5307
16185 1 -23.5848 -39.309 41.393
16177 1 -36.1608 -39.3053 41.289
97 1 -3.14422 -75.4613 43.2123
16169 1 -48.7363 -39.3035 41.2143
16161 1 -61.3123 -39.3028 41.1601
16153 1 -73.8892 -39.3028 41.1195
16145 1 -9.43426 -44.0296 39.9878
16137 1 -22.012 -44.0249 39.8594
16129 1 -34.5882 -44.0214 39.7562
16121 1 -47.1637 -44.0194 39.6785
105 1 -40.8749 -72.3171 42.9756
16113 1 -59.7402 -44.0191 39.6206
16105 1 -72.3171 -44.0191 39.5764
16097 1 -7.86177 -45.6013 41.5798
16089 1 -20.4397 -45.5972 41.4527
16081 1 -33.016 -45.5936 41.3481
16073 1 -45.5916 -45.5916 41.2679
16065 1 -58.1681 -45.5912 41.2075
113 1 -28.298 -72.3171 43.0464
16057 1 -70.745 -45.5912 41.1613
16049 1 -9.43374 -50.3149 39.9992
16041 1 -22.0112 -50.3117 39.8843
16033 1 -34.5874 -50.3089 39.788
16025 1 -47.1633 -50.3075 39.712
16017 1 -59.7402 -50.3075 39.653
16009 1 -1.57214 -51.887 41.6488
121 1 -15.7211 -72.3171 43.126
16001 1 -14.1503 -51.8852 41.5302
15993 1 -26.7272 -51.8822 41.424
15985 1 -39.3031 -51.8801 41.3367
15977 1 -51.8796 -51.8796 41.2679
15969 1 -64.4565 -51.8796 41.214
15961 1 -6.28888 -56.6006 40.0354
15953 1 -18.8662 -56.5988 39.9291
129 1 -3.14422 -72.3171 43.2114
15945 1 -31.4425 -56.5966 39.8353
15937 1 -44.0191 -56.596 39.7581
15929 1 -56.596 -56.596 39.6958
15921 1 -1.57212 -58.1722 41.6491
15913 1 -14.1497 -58.1711 41.5429
15905 1 -26.7262 -58.1689 41.4458
15897 1 -39.3028 -58.1681 41.3636
137 1 -45.5912 -67.6008 0.48915
15889 1 -51.8796 -58.1681 41.2965
15881 1 -64.4565 -58.1681 41.2423
15873 1 -12.5772 -62.8857 39.9906
15865 1 -25.1538 -62.8844 39.8985
15857 1 -37.7307 -62.8844 39.8184
15849 1 -50.3075 -62.8844 39.7512
15841 1 -1.57199 -64.4577 41.6492
145 1 -33.0143 -67.6008 0.55874
15833 1 -14.1492 -64.4572 41.5531
15825 1 -26.7259 -64.4565 41.4643
15817 1 -39.3028 -64.4565 41.387
15809 1 -51.8796 -64.4565 41.3218
15801 1 -6.28844 -69.1729 40.0435
15793 1 -18.8653 -69.1729 39.9557
15785 1 -31.4422 -69.1729 39.8754
153 1 -20.4374 -67.6008 0.63919
15777 1 -44.0191 -69.1729 39.8053
15769 1 -1.57211 -70.745 41.6499
15761 1 -14.149 -70.745 41.5622
15753 1 -26.7259 -70.745 41.4802
15745 1 -39.3028 -70.745 41.4072
15737 1 -1.57211 -73.8892 41.6504
15729 1 -14.149 -73.8892 41.5663
161 1 -7.86055 -67.6008 0.72819
15721 1 -26.7259 -73.8892 41.4873
15713 1 -39.3028 -73.8892 41.4163
15705 1 -6.28844 -78.6055 40.0489
15697 1 -18.8653 -78.6055 39.971
15689 1 -31.4422 -78.6055 39.8985
15681 1 -3.14422 -81.7497 40.0697
15673 1 -15.7211 -81.7497 39.9938
169 1 -53.4518 -66.0286 42.8925
15665 1 -28.298 -81.7497 39.9221
15657 1 -6.28844 -84.894 40.0519
15649 1 -18.8653 -84.894 39.9795
15641 1 -11.0048 -86.4661 41.5977
15633 1 -11.0932 -1.58123 37.7883
15625 1 -23.6246 -1.57394 37.755
15617 1 -36.1799 -1.57258 37.7463
177 1 -40.8749 -66.0286 42.9557
15609 1 -48.7445 -1.57215 37.743
15601 1 -61.3149 -1.57209 37.7424
15593 1 -73.8892 -1.57211 37.7413
15585 1 -86.4661 -1.57211 37.7397
15577 1 -12.6284 -6.30546 36.3907
15569 1 -25.1883 -6.29497 36.2745
15561 1 -37.7486 -6.29096 36.2357
185 1 -28.298 -66.0286 43.0305
15553 1 -50.3154 -6.28914 36.2175
15545 1 -62.886 -6.28862 36.2077
15537 1 -75.4613 -6.28844 36.2001
15529 1 -1.57491 -7.85957 38.4848
15521 1 -14.1904 -7.87609 37.9855
15513 1 -26.7557 -7.8675 37.868
15505 1 -39.3183 -7.8632 37.8243
193 1 -15.7211 -66.0286 43.1161
15497 1 -51.8865 -7.86135 37.803
15489 1 -64.4574 -7.86069 37.791
15481 1 -77.0334 -7.86055 37.7815
15473 1 -3.14695 -12.5857 36.8612
15465 1 -15.7429 -12.5901 36.5022
15457 1 -28.3186 -12.5849 36.3642
15449 1 -40.8865 -12.5798 36.3035
201 1 -3.14422 -66.0286 43.2093
15441 1 -53.457 -12.578 36.2718
15433 1 -66.0286 -12.5769 36.2527
15425 1 -78.6055 -12.5769 36.2379
15417 1 -4.71992 -14.1598 38.3877
15409 1 -17.3117 -14.1614 38.079
15401 1 -29.8875 -14.1566 37.9488
15393 1 -42.4565 -14.1514 37.8874
209 1 -51.8796 -61.3123 0.43464
15385 1 -55.0282 -14.15 37.8547
15377 1 -67.6008 -14.149 37.8339
15369 1 -80.1776 -14.149 37.818
15361 1 -6.29067 -18.8781 36.807
15353 1 -18.8755 -18.8762 36.5578
15345 1 -31.4535 -18.8722 36.4271
15337 1 -44.0261 -18.8678 36.358
217 1 -39.3028 -61.3123 0.50082
15329 1 -56.5988 -18.8662 36.3183
15321 1 -69.1729 -18.8653 36.2918
15313 1 -81.7497 -18.8653 36.272
15305 1 -9.43529 -22.0222 36.7591
15297 1 -22.0172 -22.0191 36.5558
15289 1 -34.5945 -22.0148 36.4402
15281 1 -47.1683 -22.0116 36.3748
225 1 -26.7259 -61.3123 0.58039
15273 1 -59.7414 -22.01 36.3346
15265 1 -72.3171 -22.0095 36.3064
15257 1 -84.894 -22.0095 36.2855
15249 1 -12.5796 -25.1655 36.7251
15241 1 -25.1597 -25.1618 36.5543
15233 1 -37.7365 -25.1571 36.4507
15225 1 -50.3108 -25.1553 36.3891
233 1 -14.1494 -61.3141 0.673338
15217 1 -62.8844 -25.1538 36.349
15209 1 -75.4613 -25.1538 36.3196
15201 1 -4.71675 -26.7396 38.4457
15193 1 -17.2967 -26.7361 38.2375
15185 1 -29.8757 -26.732 38.0964
15177 1 -42.4515 -26.7284 38.0101
15169 1 -55.0256 -26.7267 37.9561
241 1 -1.57209 -61.3149 0.774272
15161 1 -67.6008 -26.7259 37.919
15153 1 -80.1776 -26.7259 37.8917
15145 1 -9.43378 -31.4546 36.8097
15137 1 -22.0128 -31.4503 36.6434
15129 1 -34.5906 -31.4458 36.5273
15121 1 -47.1658 -31.4438 36.4519
15113 1 -59.7402 -31.4422 36.401
249 1 -53.4518 -59.7402 42.8678
15105 1 -72.3171 -31.4422 36.3638
15097 1 -3.14425 -34.5996 36.9098
15089 1 -15.7232 -34.5965 36.7379
15081 1 -28.3018 -34.5915 36.6026
15073 1 -40.8776 -34.5886 36.5094
15065 1 -53.4526 -34.5871 36.4456
15057 1 -66.0286 -34.5864 36.4
257 1 -40.8749 -59.7402 42.9328
15049 1 -78.6055 -34.5864 36.366
15041 1 -11.0061 -36.1699 38.3767
15033 1 -23.5848 -36.1653 38.2305
15025 1 -36.1614 -36.1614 38.1237
15017 1 -48.7368 -36.1596 38.0496
15009 1 -61.3123 -36.1585 37.9973
15001 1 -73.8892 -36.1585 37.9584
265 1 -28.298 -59.7402 43.0117
14993 1 -6.28919 -40.8867 36.8747
14985 1 -18.8682 -40.8828 36.7317
14977 1 -31.4447 -40.8783 36.6174
14969 1 -44.0203 -40.876 36.5329
14961 1 -56.596 -40.8749 36.4716
14953 1 -69.1729 -40.8749 36.4256
14945 1 -4.71691 -42.4587 38.4671
273 1 -15.7217 -59.7424 43.1053
14937 1 -17.2958 -42.4551 38.3267
14929 1 -29.8724 -42.4506 38.2111
14921 1 -42.4481 -42.4481 38.1237
14913 1 -55.0239 -42.447 38.0595
14905 1 -67.6008 -42.447 38.0112
14897 1 -3.14454 -47.1732 36.9155
14889 1 -15.723 -47.1704 36.7867
281 1 -3.14433 -59.7435 43.2081
14881 1 -28.2998 -47.1665 36.6755
14873 1 -40.8756 -47.1641 36.5874
14865 1 -53.4518 -47.1633 36.5204
14857 1 -66.0286 -47.1633 36.469
14849 1 -4.71687 -48.7443 38.4722
14841 1 -17.295 -48.7414 38.3487
14833 1 -29.8716 -48.7379 38.2426
289 1 -58.1681 -55.0239 0.37913
14825 1 -42.4473 -48.7358 38.1582
14817 1 -55.0239 -48.7354 38.0934
14809 1 -67.6008 -48.7354 38.0433
14801 1 -9.43352 -53.4576 36.8597
14793 1 -22.0108 -53.4549 36.7506
14785 1 -34.5871 -53.4526 36.6576
14777 1 -47.1633 -53.4518 36.5829
297 1 -45.5912 -55.0239 0.43981
14769 1 -59.7402 -53.4518 36.5238
14761 1 -1.57213 -55.0295 38.5048
14753 1 -14.15 -55.0282 38.3927
14745 1 -26.7267 -55.0256 38.2913
14737 1 -39.3028 -55.0239 38.2064
14729 1 -51.8796 -55.0239 38.1384
14721 1 -64.4565 -55.0239 38.0843
305 1 -33.0147 -55.0245 0.515927
14713 1 -9.43315 -59.7431 36.8675
14705 1 -22.01 -59.7414 36.7685
14697 1 -34.5864 -59.7402 36.682
14689 1 -47.1633 -59.7402 36.6102
14681 1 -59.7402 -59.7402 36.5516
14673 1 -7.86088 -61.3146 38.4539
14665 1 -20.4377 -61.3132 38.3561
313 1 -20.4385 -55.0269 0.609482
14657 1 -33.0143 -61.3123 38.2696
14649 1 -45.5912 -61.3123 38.1968
14641 1 -58.1681 -61.3123 38.1369
14633 1 -9.43266 -66.0286 36.8737
14625 1 -22.0095 -66.0286 36.7837
14617 1 -34.5864 -66.0286 36.7032
14609 1 -47.1633 -66.0286 36.6343
321 1 -7.86119 -55.0291 0.717291
14601 1 -1.57211 -67.6008 38.5052
14593 1 -14.149 -67.6008 38.4136
14585 1 -26.7259 -67.6008 38.3284
14577 1 -39.3028 -67.6008 38.2532
14569 1 -51.8796 -67.6008 38.1892
14561 1 -9.43266 -72.3171 36.8798
14553 1 -22.0095 -72.3171 36.7968
329 1 -66.0286 -53.4518 42.7875
14545 1 -34.5864 -72.3171 36.7214
14537 1 -47.1633 -72.3171 36.6555
14529 1 -9.43266 -75.4613 36.8825
14521 1 -22.0095 -75.4613 36.8027
14513 1 -34.5864 -75.4613 36.7296
14505 1 -1.57211 -77.0334 38.5066
14497 1 -14.149 -77.0334 38.4259
337 1 -53.4518 -53.4518 42.84
14489 1 -26.7259 -77.0334 38.3497
14481 1 -39.3028 -77.0334 38.2807
14473 1 -11.0048 -80.1776 38.4485
14465 1 -23.5817 -80.1776 38.3736
14457 1 -1.57211 -83.3219 38.5074
14449 1 -14.149 -83.3219 38.4326
14441 1 -1.57211 -86.4661 38.5077
345 1 -40.8749 -53.4518 42.9064
14433 1 -6.38549 -3.17094 33.2436
14425 1 -18.9181 -3.15019 33.0876
14417 1 -31.4699 -3.14625 33.0575
14409 1 -44.0308 -3.14462 33.045
14401 1 -56.6008 -3.14438 33.0401
14393 1 -69.1729 -3.14422 33.0369
14385 1 -81.7497 -3.14422 33.0335
353 1 -28.299 -53.4536 42.9902
14377 1 -7.92676 -4.73847 34.8633
14369 1 -20.4833 -4.72369 34.6921
14361 1 -33.039 -4.71914 34.6512
14353 1 -45.6018 -4.717 34.6335
14345 1 -58.1721 -4.71659 34.6253
14337 1 -70.745 -4.71633 34.6196
14329 1 -83.3219 -4.71633 34.6146
361 1 -15.7223 -53.4564 43.092
14321 1 -9.45746 -9.44674 33.425
14313 1 -22.041 -9.44287 33.2131
14305 1 -34.6057 -9.43728 33.1424
14297 1 -47.1722 -9.43398 33.1092
14289 1 -59.7431 -9.43315 33.0914
14281 1 -72.3171 -9.43266 33.0791
14273 1 -84.894 -9.43266 33.0696
369 1 -3.14443 -53.4582 43.2063
14265 1 -11.026 -11.0186 34.994
14257 1 -23.6082 -11.0146 34.8018
14249 1 -36.175 -11.0093 34.7295
14241 1 -48.7432 -11.0061 34.6942
14233 1 -61.3144 -11.0052 34.6744
14225 1 -73.8892 -11.0048 34.6603
14217 1 -86.4661 -11.0048 34.6497
377 1 -61.3123 -48.7354 0.33607
14209 1 -12.5875 -15.7335 33.4769
14201 1 -25.1703 -15.7306 33.2932
14193 1 -37.7422 -15.7255 33.208
14185 1 -50.3134 -15.7227 33.1633
14177 1 -62.8854 -15.7213 33.1365
14169 1 -75.4613 -15.7211 33.117
14161 1 -1.57208 -17.3052 35.3579
385 1 -48.7354 -48.7354 0.39303
14153 1 -14.1585 -17.3052 35.0413
14145 1 -26.7398 -17.302 34.8732
14137 1 -39.3124 -17.2969 34.7902
14129 1 -51.8845 -17.2946 34.7452
14121 1 -64.4565 -17.2932 34.7175
14113 1 -77.0334 -17.2932 34.6968
14105 1 -4.71739 -20.4507 35.2822
393 1 -36.1596 -48.7368 0.467079
14097 1 -17.3008 -20.4484 35.0295
14089 1 -29.8801 -20.4447 34.8859
14081 1 -42.4538 -20.4401 34.808
14073 1 -55.0269 -20.4385 34.763
14065 1 -67.6008 -20.4374 34.7333
14057 1 -80.1776 -20.4374 34.7112
14049 1 -7.86218 -23.5947 35.2289
401 1 -23.5835 -48.7395 0.562388
14041 1 -20.4434 -23.5914 35.021
14033 1 -33.0216 -23.5872 34.8956
14025 1 -45.5961 -23.5839 34.8231
14017 1 -58.1696 -23.5822 34.7785
14009 1 -70.745 -23.5817 34.7474
14001 1 -83.3219 -23.5817 34.7244
13993 1 -12.5789 -28.3096 33.6022
409 1 -11.0061 -48.7432 0.678313
13985 1 -25.1583 -28.3055 33.4397
13977 1 -37.7354 -28.3012 33.335
13969 1 -50.3101 -28.2994 33.2696
13961 1 -62.8844 -28.298 33.2259
13953 1 -75.4613 -28.298 33.1938
13945 1 -4.71664 -29.8836 35.3079
13937 1 -17.2959 -29.88 35.1173
417 1 -72.3171 -47.1633 42.7362
13929 1 -29.8746 -29.8755 34.9801
13921 1 -42.4506 -29.8724 34.8921
13913 1 -55.0251 -29.8708 34.8348
13905 1 -67.6008 -29.8701 34.7946
13897 1 -80.1776 -29.8701 34.7648
13889 1 -11.0061 -33.0261 35.221
13881 1 -23.5849 -33.0216 35.0655
425 1 -59.7402 -47.1633 42.7814
13873 1 -36.1621 -33.0175 34.9563
13865 1 -48.7373 -33.0156 34.8837
13857 1 -61.3123 -33.0143 34.8335
13849 1 -73.8892 -33.0143 34.7966
13841 1 -6.28904 -37.743 33.7259
13833 1 -18.868 -37.7391 33.5728
13825 1 -31.4452 -37.7345 33.4535
433 1 -47.1633 -47.1633 42.84
13817 1 -44.0208 -37.7321 33.3686
13809 1 -56.596 -37.7307 33.3085
13801 1 -69.1729 -37.7307 33.2642
13793 1 -1.57198 -39.3153 35.3602
13785 1 -14.151 -39.3127 35.2051
13777 1 -26.7289 -39.3078 35.0754
13769 1 -39.3048 -39.3048 34.9795
441 1 -34.5878 -47.1652 42.917
13761 1 -51.8801 -39.3031 34.9107
13753 1 -64.4565 -39.3028 34.8604
13745 1 -77.0334 -39.3028 34.8225
13737 1 -12.5789 -44.0285 33.6653
13729 1 -25.1561 -44.0239 33.5426
13721 1 -37.7321 -44.0208 33.4461
13713 1 -50.3075 -44.0191 33.374
449 1 -22.0116 -47.1683 43.0168
13705 1 -62.8844 -44.0191 33.3199
13697 1 -75.4613 -44.0191 33.2785
13689 1 -11.0064 -45.6004 35.258
13681 1 -23.5839 -45.5961 35.1358
13673 1 -36.16 -45.593 35.0374
13665 1 -48.7354 -45.5912 34.9627
13657 1 -61.3123 -45.5912 34.9063
457 1 -9.43398 -47.1722 43.1381
13649 1 -73.8892 -45.5912 34.863
13641 1 -12.5782 -50.3142 33.6807
13633 1 -25.1553 -50.3108 33.5698
13625 1 -37.7313 -50.3084 33.4787
13617 1 -50.3075 -50.3075 33.4073
13609 1 -62.8844 -50.3075 33.3519
13601 1 -4.71676 -51.8868 35.3301
465 1 -73.8892 -42.447 0.26091
13593 1 -17.2946 -51.8845 35.2137
13585 1 -29.8712 -51.8815 35.1119
13577 1 -42.447 -51.8796 35.0293
13569 1 -55.0239 -51.8796 34.9647
13561 1 -67.6008 -51.8796 34.9139
13553 1 -9.43333 -56.6003 33.7196
13545 1 -22.0104 -56.5982 33.6158
473 1 -61.3123 -42.447 0.30301
13537 1 -34.5864 -56.596 33.5259
13529 1 -47.1633 -56.596 33.4527
13521 1 -59.7402 -56.596 33.3938
13513 1 -4.71659 -58.1721 35.3337
13505 1 -17.2939 -58.1706 35.229
13497 1 -29.8704 -58.1686 35.1353
13489 1 -42.447 -58.1681 35.057
481 1 -48.7358 -42.4473 0.358536
13481 1 -55.0239 -58.1681 34.9933
13473 1 -3.14424 -62.8862 33.7761
13465 1 -15.7213 -62.8854 33.6782
13457 1 -28.298 -62.8844 33.5888
13449 1 -40.8749 -62.8844 33.5119
13441 1 -53.4518 -62.8844 33.4478
13433 1 -4.71639 -64.4575 35.3363
489 1 -36.1604 -42.4492 0.433445
13425 1 -17.2932 -64.4565 35.2413
13417 1 -29.8701 -64.4565 35.1553
13409 1 -42.447 -64.4565 35.081
13401 1 -55.0239 -64.4565 35.0189
13393 1 -9.43266 -69.1729 33.7326
13385 1 -22.0095 -69.1729 33.6462
13377 1 -34.5864 -69.1729 33.5684
497 1 -23.5843 -42.4526 0.534665
13369 1 -47.1633 -69.1729 33.5009
13361 1 -4.71633 -70.745 35.3392
13353 1 -17.2932 -70.745 35.2525
13345 1 -29.8701 -70.745 35.1726
13337 1 -42.447 -70.745 35.102
13329 1 -4.71633 -73.8892 35.3406
13321 1 -17.2932 -73.8892 35.2574
505 1 -11.0065 -42.4572 0.66415
13313 1 -29.8701 -73.8892 35.1802
13305 1 -42.447 -73.8892 35.1115
13297 1 -9.43266 -78.6055 33.7406
13289 1 -22.0095 -78.6055 33.6638
13281 1 -34.5864 -78.6055 33.593
13273 1 -6.28844 -81.7497 33.762
13265 1 -18.8653 -81.7497 33.6869
513 1 -75.4613 -40.8749 42.6954
13257 1 -31.4422 -81.7497 33.6166
13249 1 -9.43266 -84.894 33.745
13241 1 -22.0095 -84.894 33.6734
13233 1 -1.73706 -1.5238 31.9359
13225 1 -14.2209 -1.57763 31.4853
13217 1 -26.7623 -1.57343 31.4636
13209 1 -39.3201 -1.5724 31.4566
521 1 -62.8844 -40.8749 42.7354
13201 1 -51.887 -1.57214 31.4543
13193 1 -64.4577 -1.57199 31.454
13185 1 -77.0334 -1.57211 31.4523
13177 1 -3.15696 -6.28792 30.4898
13169 1 -15.7698 -6.30178 30.0566
13161 1 -28.3279 -6.29369 29.9732
13153 1 -40.8894 -6.29023 29.9413
529 1 -50.308 -40.8752 42.7883
13145 1 -53.458 -6.289 29.9261
13137 1 -66.0286 -6.28844 29.9175
13129 1 -78.6055 -6.28844 29.91
13121 1 -4.73145 -7.86642 32.0018
13113 1 -17.3334 -7.8733 31.6529
13105 1 -29.8961 -7.86621 31.5652
13097 1 -42.4595 -7.86235 31.529
537 1 -37.7326 -40.877 42.8603
13089 1 -55.0291 -7.86119 31.511
13081 1 -67.6008 -7.86055 31.5001
13073 1 -80.1776 -7.86055 31.491
13065 1 -6.29601 -12.5874 30.454
13057 1 -18.8887 -12.5891 30.1662
13049 1 -31.4607 -12.5836 30.0564
13041 1 -44.0285 -12.5789 30.0052
545 1 -25.1566 -40.8802 42.9591
13033 1 -56.5999 -12.5777 29.9778
13025 1 -69.1729 -12.5769 29.96
13017 1 -81.7497 -12.5769 29.9464
13009 1 -7.86805 -14.1606 31.9989
13001 1 -20.457 -14.1604 31.747
12993 1 -33.03 -14.1552 31.6411
12985 1 -45.5994 -14.151 31.5891
553 1 -12.5788 -40.885 43.0889
12977 1 -58.1711 -14.1497 31.5603
12969 1 -70.745 -14.149 31.5409
12961 1 -83.3219 -14.149 31.5263
12953 1 -9.43684 -18.8777 30.4433
12945 1 -22.0208 -18.8754 30.228
12937 1 -34.5968 -18.8709 30.1173
12929 1 -47.1693 -18.8674 30.0578
561 1 -80.1776 -36.1585 0.21198
12921 1 -59.7419 -18.8658 30.0224
12913 1 -72.3171 -18.8653 29.9977
12905 1 -84.894 -18.8653 29.9795
12897 1 -12.5809 -22.0214 30.4101
12889 1 -25.1621 -22.0182 30.2319
12881 1 -37.7381 -22.0134 30.1317
12873 1 -50.3117 -22.0112 30.0746
569 1 -67.6008 -36.1585 0.24576
12865 1 -62.8844 -22.0095 30.0385
12857 1 -75.4613 -22.0095 30.0121
12849 1 -3.14435 -25.1676 30.6125
12841 1 -15.7248 -25.1646 30.3865
12833 1 -28.3043 -25.1607 30.2347
12825 1 -40.8802 -25.1566 30.144
12817 1 -53.4542 -25.1549 30.0891
577 1 -55.0243 -36.1588 0.290785
12809 1 -66.0286 -25.1538 30.0522
12801 1 -78.6055 -25.1538 30.025
12793 1 -7.86173 -26.739 32.1001
12785 1 -20.4417 -26.7351 31.9075
12777 1 -33.02 -26.7307 31.782
12769 1 -45.5951 -26.728 31.7059
12761 1 -58.1689 -26.7262 31.6573
585 1 -42.4492 -36.1604 0.352614
12753 1 -70.745 -26.7259 31.6229
12745 1 -83.3219 -26.7259 31.5975
12737 1 -12.5785 -31.4536 30.4753
12729 1 -25.1575 -31.4492 30.3213
12721 1 -37.7345 -31.4452 30.217
12713 1 -50.3094 -31.4434 30.1488
12705 1 -62.8844 -31.4422 30.1021
593 1 -29.8735 -36.163 0.441487
12697 1 -75.4613 -31.4422 30.0676
12689 1 -6.28898 -34.5992 30.5762
12681 1 -18.8678 -34.5953 30.4116
12673 1 -31.4458 -34.5906 30.2874
12665 1 -44.0214 -34.5882 30.2027
12657 1 -56.596 -34.5864 30.1446
12649 1 -69.1729 -34.5864 30.1021
601 1 -17.2955 -36.1678 0.568314
12641 1 -1.57191 -36.1716 32.2162
12633 1 -14.1508 -36.1689 32.0484
12625 1 -26.7295 -36.164 31.9114
12617 1 -39.3053 -36.1608 31.8141
12609 1 -51.8805 -36.1592 31.7465
12601 1 -64.4565 -36.1585 31.698
12593 1 -77.0334 -36.1585 31.6618
609 1 -4.71664 -36.1714 0.730484
12585 1 -9.43396 -40.8859 30.5487
12577 1 -22.0125 -40.8815 30.4118
12569 1 -34.5886 -40.8776 30.3053
12561 1 -47.1641 -40.8756 30.2273
12553 1 -59.7402 -40.8749 30.1703
12545 1 -72.3171 -40.8749 30.1275
12537 1 -7.8617 -42.4581 32.1421
617 1 -72.3171 -34.5864 42.6702
12529 1 -20.4401 -42.4538 32.0067
12521 1 -33.0164 -42.4498 31.8983
12513 1 -45.592 -42.4477 31.8173
12505 1 -58.1681 -42.447 31.7576
12497 1 -70.745 -42.447 31.7126
12489 1 -6.2893 -47.1728 30.5939
12481 1 -18.8674 -47.1693 30.4684
625 1 -59.7402 -34.5864 42.7096
12473 1 -31.4438 -47.1658 30.3628
12465 1 -44.0194 -47.1637 30.2804
12457 1 -56.596 -47.1633 30.2177
12449 1 -69.1729 -47.1633 30.1695
12441 1 -7.86155 -48.7438 32.1518
12433 1 -20.4393 -48.7405 32.0319
12425 1 -33.0156 -48.7373 31.9311
633 1 -47.1652 -34.5878 42.763
12417 1 -45.5912 -48.7354 31.8519
12409 1 -58.1681 -48.7354 31.7912
12401 1 -70.745 -48.7354 31.744
12393 1 -12.578 -53.457 30.5429
12385 1 -25.1549 -53.4542 30.4372
12377 1 -37.731 -53.4522 30.3487
12369 1 -50.3075 -53.4518 30.2783
641 1 -34.5898 -34.5898 42.84
12361 1 -62.8844 -53.4518 30.2226
12353 1 -4.71668 -55.0294 32.1878
12345 1 -17.2943 -55.0275 32.0776
12337 1 -29.8708 -55.0251 31.9799
12329 1 -42.447 -55.0239 31.8995
12321 1 -55.0239 -55.0239 31.8352
12313 1 -67.6008 -55.0239 31.7841
649 1 -22.0125 -34.5941 42.9533
12305 1 -12.5774 -59.7428 30.5534
12297 1 -25.154 -59.7409 30.4571
12289 1 -37.7307 -59.7402 30.3743
12281 1 -50.3075 -59.7402 30.3059
12273 1 -62.8844 -59.7402 30.2503
12265 1 -11.0052 -61.3144 32.1403
12257 1 -23.5819 -61.3129 32.0448
657 1 -9.43371 -34.5985 43.109
12249 1 -36.1585 -61.3123 31.9616
12241 1 -48.7354 -61.3123 31.8922
12233 1 -61.3123 -61.3123 31.8352
12225 1 -12.5769 -66.0286 30.562
12217 1 -25.1538 -66.0286 30.474
12209 1 -37.7307 -66.0286 30.3964
12201 1 -50.3075 -66.0286 30.3303
665 1 -78.6055 -31.4422 42.6374
12193 1 -4.71633 -67.6008 32.1935
12185 1 -17.2932 -67.6008 32.103
12177 1 -29.8701 -67.6008 32.0201
12169 1 -42.447 -67.6008 31.9477
12161 1 -55.0239 -67.6008 31.8864
12153 1 -12.5769 -72.3171 30.57
12145 1 -25.1538 -72.3171 30.4887
673 1 -66.0286 -31.4422 42.6693
12137 1 -37.7307 -72.3171 30.4155
12129 1 -51.8796 -70.745 31.9116
12121 1 -12.5769 -75.4613 30.5736
12113 1 -25.1538 -75.4613 30.4952
12105 1 -37.7307 -75.4613 30.4242
12097 1 -4.71633 -77.0334 32.1977
12089 1 -17.2932 -77.0334 32.1178
681 1 -53.453 -31.443 42.7125
12081 1 -29.8701 -77.0334 32.0432
12073 1 -1.57211 -80.1776 32.2185
12065 1 -14.149 -80.1776 32.1409
12057 1 -26.7259 -80.1776 32.0673
12049 1 -4.71633 -83.3219 32.2
12041 1 -17.2932 -83.3219 32.1259
12033 1 -7.86055 -86.4661 32.1829
689 1 -40.8783 -31.4447 42.7741
12025 1 -9.51823 -3.16333 26.8801
12017 1 -22.0547 -3.14865 26.7883
12009 1 -34.6096 -3.14578 26.7651
12001 1 -47.1732 -3.14454 26.755
11993 1 -59.7435 -3.14433 26.7508
11985 1 -72.3171 -3.14422 26.7476
11977 1 -84.894 -3.14422 26.7444
697 1 -28.3021 -31.448 42.8676
11969 1 -11.0703 -4.73484 28.4984
11961 1 -23.6214 -4.72208 28.3892
11953 1 -36.1791 -4.71849 28.3571
11945 1 -48.7443 -4.71687 28.3425
11937 1 -61.3147 -4.71649 28.3354
11929 1 -73.8892 -4.71633 28.3298
11921 1 -86.4661 -4.71633 28.3252
705 1 -15.7233 -31.4526 43.0089
11913 1 -12.6084 -9.44818 27.0558
11905 1 -25.1824 -9.44121 26.9007
11897 1 -37.7469 -9.43622 26.8434
11889 1 -50.3149 -9.43374 26.8155
11881 1 -62.8859 -9.43295 26.7997
11873 1 -75.4613 -9.43266 26.7881
11865 1 -1.57304 -11.0104 29.062
713 1 -3.14422 -31.4558 43.196
11857 1 -14.175 -11.0191 28.6358
11849 1 -26.7502 -11.0131 28.4894
11841 1 -39.3166 -11.0081 28.4299
11833 1 -51.8859 -11.0059 28.3998
11825 1 -64.4573 -11.005 28.3823
11817 1 -77.0334 -11.0048 28.3689
11809 1 -3.14547 -15.7326 27.4454
721 1 -73.8892 -26.7259 0.17364
11801 1 -15.7347 -15.7334 27.1279
11793 1 -28.3138 -15.7294 26.9776
11785 1 -40.8847 -15.7243 26.9057
11777 1 -53.4564 -15.7223 26.8669
11769 1 -66.0286 -15.7211 26.8428
11761 1 -78.6055 -15.7211 26.8246
11753 1 -4.71819 -17.3056 28.9783
729 1 -61.3123 -26.7259 0.20567
11745 1 -17.305 -17.3048 28.6986
11737 1 -29.8834 -17.3008 28.5587
11729 1 -42.4551 -17.2958 28.4879
11721 1 -55.0275 -17.2943 28.4487
11713 1 -67.6008 -17.2932 28.4233
11705 1 -80.1776 -17.2932 28.4043
11697 1 -7.86305 -20.4503 28.9204
737 1 -48.7387 -26.7276 0.249567
11689 1 -20.4463 -20.4476 28.6963
11681 1 -33.0238 -20.4435 28.5735
11673 1 -45.5972 -20.4397 28.5062
11665 1 -58.1701 -20.4381 28.4661
11657 1 -70.745 -20.4374 28.4387
11649 1 -83.3219 -20.4374 28.4183
11641 1 -11.0075 -23.5939 28.8802
745 1 -36.164 -26.7295 0.316883
11633 1 -23.5884 -23.5905 28.6945
11625 1 -36.1654 -23.5859 28.5852
11617 1 -48.7395 -23.5835 28.5217
11609 1 -61.3129 -23.5819 28.4815
11601 1 -73.8892 -23.5817 28.4525
11593 1 -3.14426 -28.3118 27.4721
11585 1 -15.7238 -28.3086 27.2672
753 1 -23.5866 -26.7342 0.428005
11577 1 -28.3028 -28.3044 27.1202
11569 1 -40.8792 -28.3007 27.0274
11561 1 -53.4536 -28.299 26.9687
11553 1 -66.0286 -28.298 26.9285
11545 1 -78.6055 -28.298 26.8988
11537 1 -7.86146 -29.883 28.968
11529 1 -20.4407 -29.879 28.7893
761 1 -11.0067 -26.7381 0.603501
11521 1 -33.019 -29.8742 28.6654
11513 1 -45.5943 -29.872 28.5871
11505 1 -58.1686 -29.8704 28.5352
11497 1 -70.745 -29.8701 28.4979
11489 1 -1.57186 -33.0277 29.0721
11481 1 -14.1508 -33.0251 28.8895
11473 1 -26.7296 -33.0204 28.7454
769 1 -81.7497 -25.1538 42.5963
11465 1 -39.306 -33.0169 28.647
11457 1 -51.881 -33.0152 28.581
11449 1 -64.4565 -33.0143 28.5348
11441 1 -77.0334 -33.0143 28.5006
11433 1 -9.4338 -37.7423 27.3969
11425 1 -22.0126 -37.7377 27.2509
11417 1 -34.5892 -37.7337 27.141
777 1 -69.1729 -25.1538 42.6215
11409 1 -47.1646 -37.7317 27.0632
11401 1 -59.7402 -37.7307 27.0078
11393 1 -72.3171 -37.7307 26.9665
11385 1 -4.71673 -39.3151 29.0318
11377 1 -17.2958 -39.3115 28.8811
11369 1 -29.8729 -39.3068 28.76
11361 1 -42.4486 -39.3043 28.6716
785 1 -56.5976 -25.1545 42.6555
11353 1 -55.0239 -39.3028 28.6084
11345 1 -67.6008 -39.3028 28.5615
11337 1 -3.14462 -44.0308 27.4813
11329 1 -15.7234 -44.0274 27.344
11321 1 -28.3002 -44.0229 27.2275
11313 1 -40.876 -44.0203 27.1376
11305 1 -53.4518 -44.0191 27.0706
793 1 -44.0239 -25.1561 42.7048
11297 1 -66.0286 -44.0191 27.0201
11289 1 -1.57216 -45.6021 29.0714
11281 1 -14.151 -45.5994 28.9371
11273 1 -26.728 -45.5951 28.8204
11265 1 -39.3038 -45.5925 28.7283
11257 1 -51.8796 -45.5912 28.6588
11249 1 -64.4565 -45.5912 28.606
801 1 -31.4486 -25.1596 42.7843
11241 1 -3.14448 -50.3157 27.4841
11233 1 -15.7227 -50.3134 27.363
11225 1 -28.2994 -50.3101 27.2566
11217 1 -40.8752 -50.308 27.1706
11209 1 -53.4518 -50.3075 27.1038
11201 1 -66.0286 -50.3075 27.0517
11193 1 -7.86135 -51.8865 29.0117
809 1 -18.8699 -25.1637 42.9182
11185 1 -20.4389 -51.8837 28.8981
11177 1 -33.0152 -51.881 28.801
11169 1 -45.5912 -51.8796 28.7233
11161 1 -58.1681 -51.8796 28.6624
11153 1 -70.745 -51.8796 28.6146
11145 1 -12.5777 -56.5999 27.4043
11137 1 -25.1545 -56.5976 27.3034
817 1 -6.2894 -25.1673 43.1275
11129 1 -37.7307 -56.596 27.2177
11121 1 -50.3075 -56.596 27.1483
11113 1 -62.8844 -56.596 27.0926
11105 1 -7.86104 -58.1719 29.0184
11097 1 -20.4381 -58.1701 28.9159
11089 1 -33.0143 -58.1681 28.8257
11081 1 -45.5912 -58.1681 28.7514
825 1 -78.6055 -22.0095 42.5836
11073 1 -58.1681 -58.1681 28.691
11065 1 -6.28862 -62.886 27.4628
11057 1 -18.8655 -62.8851 27.3664
11049 1 -31.4422 -62.8844 27.28
11041 1 -44.0191 -62.8844 27.2063
11033 1 -56.596 -62.8844 27.1452
11025 1 -7.86069 -64.4574 29.0237
833 1 -66.0286 -22.0095 42.6079
11017 1 -20.4374 -64.4565 28.9304
11009 1 -33.0143 -64.4565 28.8472
11001 1 -45.5912 -64.4565 28.776
10993 1 -58.1681 -64.4565 28.7167
10985 1 -12.5769 -69.1729 27.422
10977 1 -25.1538 -69.1729 27.3375
10969 1 -37.7307 -69.1729 27.2621
841 1 -53.4549 -22.0108 42.641
10961 1 -50.3075 -69.1729 27.1973
10953 1 -7.86055 -70.745 29.0287
10945 1 -20.4374 -70.745 28.9434
10937 1 -33.0143 -70.745 28.8656
10929 1 -45.5912 -70.745 28.7976
10921 1 -7.86055 -73.8892 29.0311
10913 1 -20.4374 -73.8892 28.949
849 1 -40.8815 -22.0125 42.6914
10905 1 -33.0143 -73.8892 28.8738
10897 1 -45.5912 -73.8892 28.8074
10889 1 -12.5769 -78.6055 27.4326
10881 1 -25.1538 -78.6055 27.357
10873 1 -37.7307 -78.6055 27.288
10865 1 -9.43266 -81.7497 27.4545
10857 1 -22.0095 -81.7497 27.3804
857 1 -28.3066 -22.0171 42.7781
10849 1 -36.1585 -80.1776 28.8721
10841 1 -12.5769 -84.894 27.4384
10833 1 -26.7259 -83.3219 28.9288
10825 1 -4.87417 -1.59878 25.2848
10817 1 -17.3533 -1.5757 25.1881
10809 1 -29.9009 -1.57307 25.1729
10801 1 -42.4607 -1.57225 25.1671
865 1 -15.7266 -22.0207 42.9329
10793 1 -55.0295 -1.57213 25.1657
10785 1 -67.6008 -1.57211 25.1654
10777 1 -80.1776 -1.57211 25.1635
10769 1 -6.32281 -6.30056 24.0039
10761 1 -18.9097 -6.29876 23.7368
10753 1 -31.4679 -6.29264 23.6744
10745 1 -44.0304 -6.28948 23.6478
873 1 -3.14453 -22.0232 43.1842
10737 1 -56.6006 -6.28888 23.6351
10729 1 -69.1729 -6.28844 23.627
10721 1 -81.7497 -6.28844 23.62
10713 1 -7.88978 -7.87439 25.5689
10705 1 -20.4748 -7.87094 25.3328
10697 1 -33.0366 -7.86507 25.2651
10689 1 -45.6013 -7.86177 25.2349
881 1 -75.4613 -18.8653 42.5695
10681 1 -58.1719 -7.86104 25.2194
10673 1 -70.745 -7.86055 25.2091
10665 1 -83.3219 -7.86055 25.2008
10657 1 -9.44593 -12.5894 24.0662
10649 1 -22.033 -12.5878 23.8406
10641 1 -34.6027 -12.5823 23.7519
10633 1 -47.1714 -12.5786 23.7085
889 1 -62.8851 -18.8655 42.5926
10625 1 -59.7428 -12.5774 23.6844